Generated by pymatgen.io.lammps.data.LammpsData

360  atoms

  2  atom types

0.000000 16.871067  xlo xhi
0.000000 22.058404  ylo yhi
0.000000 29.928687  zlo zhi

Masses

1  208.9804
2   78.9600

Atoms

1    1  0.7824  2.151870 13.555600 21.747200
2    1  0.7689  4.697580 16.742800 21.365000
3    1  0.7647  2.312900  5.969990 21.684300
4    1  0.7785  4.097330  9.583320 21.400000
5    1  0.8279  6.185580 13.121700 21.421300
6    1  0.6976  8.786040 16.897200 21.222600
7    1  0.7668  2.223250 20.472500 21.139200
8    1  0.7632  4.334260  1.957360 21.436600
9    1  0.7329  6.302800  5.822060 21.240400
10   1  0.7749  8.642390  9.692960 21.506800
11   1  0.8120 10.300800 13.232800 21.176500
12   1  0.7340 12.601400 17.105400 21.070400
13   1  0.7405  6.553430 20.165300 21.410600
14   1  0.7712  8.150240  2.103720 21.409100
15   1  0.7595 10.417300  5.764900 21.511400
16   1  0.7967 12.653500  9.547010 21.267700
17   1  0.8105 15.050100 13.371800 21.649300
18   1  0.7880 -0.142314 17.238400 21.439700
19   1  0.7059 10.443800 20.570300 21.301800
20   1  0.7329 12.890700  2.110690 21.494100
21   1  0.7943 14.819200  5.978590 21.096600
22   1  0.7652 -0.126891  9.640800 21.358300
23   1  0.7755 14.421400 20.462700 21.321500
24   1  0.7354  0.220246  2.545100 21.131000
25   1  0.7958  2.313350 13.149700 28.268800
26   1  0.7636  4.483460 16.682500 28.051000
27   1  0.7944  2.225880  5.654880 28.067200
28   1  0.7747  4.052010  9.582300 28.146200
29   1  0.7652  6.276570 13.182400 28.233200
30   1  0.7965  8.403530 16.704700 28.130300
31   1  0.7355  2.119410 20.812200 28.582900
32   1  0.7988  4.849670  2.063830 28.404400
33   1  0.7999  6.581290  5.989530 28.048500
34   1  0.7658  8.358020  9.436290 27.844600
35   1  0.7821 10.777800 13.091600 27.792400
36   1  0.7911 12.810900 16.967700 27.922100
37   1  0.8069  6.918550 20.642100 28.210100
38   1  0.7418  8.841800  2.136240 28.311000
39   1  0.8022 10.716400  5.898580 27.864900
40   1  0.7343 13.021600  9.719730 28.123400
41   1  0.7810 14.747400 13.428300 27.955900
42   1  0.7749  0.506388 17.016600 28.090100
43   1  0.7659 10.886500 20.580900 28.429500
44   1  0.7504 13.108200  2.331610 27.846500
45   1  0.7730 15.307200  6.056870 27.773400
46   1  0.8331  0.037009  9.664980 28.188800
47   1  0.7536 15.080100 20.790700 28.307600
48   1  0.7519  0.342168  2.221230 28.381300
49   1  0.7713  2.309830 15.566800  1.990470
50   1  0.8119  4.798400 19.457300  1.587310
51   1  0.7584  1.988350  8.323660  1.752490
52   1  0.7493  4.070620 11.661900  2.044860
53   1  0.7190  6.779330 15.504400  1.487850
54   1  0.8016  8.925970 19.427200  1.791700
55   1  0.7457  2.394790  0.978017  1.737690
56   1  0.8056  4.473150  4.615940  1.975510
57   1  0.7493  6.431340  7.917790  1.520410
58   1  0.7967  8.314780 11.783600  1.686150
59   1  0.7765 10.730400 15.361500  1.489640
60   1  0.7822 12.931800 19.522700  1.698770
61   1  0.7369  6.684490  1.058840  1.776410
62   1  0.7365  8.798230  4.606040  1.954440
63   1  0.7931 10.270500  8.146010  1.771330
64   1  0.7231 12.825800 11.749600  1.709560
65   1  0.8079 14.853300 15.692300  1.424020
66   1  0.7509  0.568767 19.461000  1.948140
67   1  0.7638 10.778800  0.941603  1.965050
68   1  0.8374 12.870400  4.914630  1.557120
69   1  0.7352 14.982500  8.160530  2.252990
70   1  0.7572  0.076014 11.982300  1.708490
71   1  0.7949 14.918500  1.187590  1.640930
72   1  0.7822 17.178300  4.645500  1.677960
73   1  0.8494  2.263700 15.648100  7.538820
74   1  0.7747  4.402880 19.531200  7.691850
75   1  0.7735  2.410320  8.317590  8.137570
76   1  0.7757  4.389440 11.921200  8.204460
77   1  0.7741  6.680160 15.531000  8.087220
78   1  0.7492  8.718220 19.603200  8.090930
79   1  0.7508  2.590520  0.892037  8.124170
80   1  0.8146  4.716170  4.526770  8.103780
81   1  0.7949  6.725780  8.553280  7.967600
82   1  0.8028  8.554840 12.113600  7.814580
83   1  0.8181 10.657700 15.746900  7.728240
84   1  0.8165 12.745000 19.425500  7.715750
85   1  0.7417  6.611020  1.005410  7.899180
86   1  0.7503  8.665280  4.753430  8.091050
87   1  0.8117 10.948900  8.260310  8.121760
88   1  0.8326 12.954800 11.977900  8.273410
89   1  0.8076 14.778800 15.418600  7.956770
90   1  0.8055  0.088511 19.199000  7.804220
91   1  0.7831 10.800400  1.179510  8.013470
92   1  0.8045 12.918700  4.835550  8.025680
93   1  0.7843 15.307300  8.155770  8.043270
94   1  0.7375 -0.140099 11.758400  8.235520
95   1  0.8061 15.198900  0.947195  8.133070
96   1  0.7686  0.545388  4.761630  8.418870
97   1  0.7508  0.229118 14.677300 11.632400
98   1  0.7639  2.379540 18.030900 11.322100
99   1  0.7384  0.137978  6.799590 11.725600
100  1  0.7088  2.091780 10.534700 11.618400
101  1  0.7633  4.152960 14.634200 11.345000
102  1  0.7815  6.507000 18.025900 10.801700
103  1  0.7586  0.113691 21.691900 11.477000
104  1  0.7855  2.347550  3.386160 11.418900
105  1  0.8220  4.404140  7.121680 11.685200
106  1  0.7361  6.627210 10.756300 11.601400
107  1  0.7715  8.828540 14.343000 11.180200
108  1  0.7554 10.748300 17.926300 11.593400
109  1  0.7635  4.333990 21.788900 11.143700
110  1  0.8206  6.736570  3.608520 11.330900
111  1  0.7366  8.662170  7.040720 11.353900
112  1  0.7687 10.932300 10.671100 11.199900
113  1  0.7207 12.896100 14.477000 11.338600
114  1  0.7425 15.001200 18.298300 11.141100
115  1  0.7510  8.806440 21.753100 11.479300
116  1  0.7349 11.115300  3.674550 11.547000
117  1  0.7502 12.907600  7.299530 11.311700
118  1  0.7029 15.081600 10.699100 11.490300
119  1  0.7952 12.962400 -0.205266 11.479500
120  1  0.7819 15.134500  3.475840 11.625000
121  1  0.8046  0.139151 14.428300 18.277200
122  1  0.7386  2.276770 18.050000 17.841500
123  1  0.8005 -0.012849  7.207150 17.990900
124  1  0.7690  1.951090 10.599100 18.159700
125  1  0.8394  4.150140 14.563200 17.917100
126  1  0.7629  6.529360 18.136100 18.003200
127  1  0.7990  0.178437 22.080100 18.007400
128  1  0.7860  2.226340  3.398260 18.140300
129  1  0.7983  4.403260  6.886060 18.102100
130  1  0.7699  6.426460 10.914500 17.936300
131  1  0.7631  8.449320 14.315800 17.977100
132  1  0.8054 10.637400 18.200200 17.906900
133  1  0.7779  4.381070 21.810200 17.935700
134  1  0.8041  6.325050  3.402470 17.993000
135  1  0.7534  8.497370  6.918800 18.352800
136  1  0.7152 10.697500 10.927300 17.968400
137  1  0.8067 12.809200 14.385500 18.391400
138  1  0.8127 14.850400 18.104500 17.857400
139  1  0.8022  8.374090 21.892400 18.164000
140  1  0.7507 11.077900  3.555390 17.972900
141  1  0.8115 12.771400  7.199590 17.870300
142  1  0.7474 14.654900 10.747400 18.178400
143  1  0.7815 12.740400 22.226300 17.823800
144  1  0.7801 14.920700  3.498380 18.128600
145  2 -0.8098  0.151357 14.424400 29.899500
146  2 -0.8387  2.482230 18.222100 30.029600
147  2 -0.8692  0.042096  7.028920 29.984900
148  2 -0.8995  1.925170 10.635200 -0.051074
149  2 -0.8864  4.343230 14.256800 29.887900
150  2 -0.8538  6.648780 18.338600 29.782900
151  2 -0.9757 17.080200  0.147608  0.024408
152  2 -0.8652  2.602000  3.542730 30.032500
153  2 -0.8281  4.215570  6.971460  0.040525
154  2 -0.8450  6.263300 10.621900 -0.173299
155  2 -0.8722  8.743850 14.143000 29.620200
156  2 -0.8396 10.788200 18.155800 29.670700
157  2 -0.8752  4.806400 21.859300 29.769200
158  2 -0.8769  6.714930  3.509320 29.850100
159  2 -0.8752  8.698680  7.028630 29.617300
160  2 -0.8052 10.458600 10.785000 29.867800
161  2 -0.8784 12.820100 14.633600 29.668400
162  2 -0.8137 15.247200 18.152100 29.953300
163  2 -0.9249  8.896020 21.698400 30.243000
164  2 -0.8152 10.956600  3.738090 -0.101124
165  2 -0.7922 12.747500  7.075060 29.897400
166  2 -0.8887 15.022300 10.939300 -0.465345
167  2 -0.8852 13.013900 -0.173799 -0.075830
168  2 -0.8407 14.833400  3.652030 29.963400
169  2 -0.4004  2.167570 15.968500 26.466100
170  2 -0.2623  4.450630 19.545600 26.590600
171  2 -0.3285  2.191610  8.112100 26.305500
172  2 -0.3427  3.998160 11.736900 26.313500
173  2 -0.4015  6.488120 15.666400 26.539800
174  2 -0.3278  8.654240 19.113900 26.568500
175  2 -0.3260  2.622610  0.819241 26.695700
176  2 -0.2694  4.632040  4.790420 26.265600
177  2 -0.3739  6.380790  8.421280 26.383600
178  2 -0.3068  8.216150 12.384300 26.263100
179  2 -0.3166 10.624700 15.615300 26.353700
180  2 -0.3189 12.961200 19.486300 26.358900
181  2 -0.2927  6.625250  1.149060 26.404000
182  2 -0.3499  8.471830  4.539470 26.534800
183  2 -0.3073 10.953800  8.290900 26.024500
184  2 -0.3331 12.698700 12.030400 25.983700
185  2 -0.3158 14.901800 15.825700 26.150200
186  2 -0.3314 -0.106630 19.697300 26.462300
187  2 -0.3676 10.540300  0.987900 26.477900
188  2 -0.2981 13.085400  4.875380 25.937700
189  2 -0.3642 15.045300  8.495800 26.315500
190  2 -0.3738  0.389380 12.141500 26.672100
191  2 -0.2926 14.949800  1.221890 26.084100
192  2 -0.4644  0.555952  4.367970 26.614000
193  2 -0.4104 -0.023698 14.938400 23.063300
194  2 -0.3116  2.129780 18.250600 23.111600
195  2 -0.3498  0.018398  7.209170 23.068800
196  2 -0.3265  1.949080 10.954800 23.323900
197  2 -0.3839  4.678880 14.813700 23.190500
198  2 -0.3812  6.641810 17.870900 23.085300
199  2 -0.2494 16.989300 22.289800 23.014700
200  2 -0.3360  2.413810  3.494580 23.221700
201  2 -0.3406  4.663950  7.151010 23.206700
202  2 -0.3311  6.192010 10.575600 23.168900
203  2 -0.3259  8.893030 14.277500 23.073600
204  2 -0.2192 10.385100 17.867600 23.709800
205  2 -0.2372  4.399150 21.689000 23.459500
206  2 -0.2900  6.927020  3.267470 23.381900
207  2 -0.3235  8.439440  7.052800 23.244600
208  2 -0.2975 10.390600 10.788600 23.397100
209  2 -0.2290 12.883100 14.620100 23.442000
210  2 -0.3811 14.498100 18.240100 23.046600
211  2 -0.3669  8.200940 21.486500 23.165900
212  2 -0.3193 10.326200  3.413290 23.225900
213  2 -0.3359 12.624500  7.253330 22.977200
214  2 -0.3423 14.829700 10.791600 23.074200
215  2 -0.3478 12.804900 21.814800 23.230300
216  2 -0.3519 15.025500  3.619420 23.008500
217  2 -0.8202  2.219390 13.281400  9.617740
218  2 -0.8447  4.317680 16.703500  9.433060
219  2 -0.8799  2.514360  5.886040  9.814120
220  2 -0.8542  4.523580  9.243280  9.822360
221  2 -0.8728  6.226990 13.254400  9.670090
222  2 -0.9026  8.917290 16.824400  9.601130
223  2 -0.8760  2.332670 20.487300  9.706430
224  2 -0.8967  4.719970  2.251440  9.790080
225  2 -0.8556  6.354590  6.032610  9.865220
226  2 -0.8682  8.765270  9.580260  9.605880
227  2 -0.8902 10.515300 13.145000  9.378550
228  2 -0.8534 12.943500 16.992000  9.441390
229  2 -0.9130  6.553570 20.364800  9.568140
230  2 -0.8760  8.677990  2.453190  9.734620
231  2 -0.9477 10.998000  5.895660  9.710160
232  2 -0.9340 12.840800  9.592610  9.619580
233  2 -0.9502 14.824400 13.362500  9.847570
234  2 -0.8368  0.299664 17.014400  9.437150
235  2 -0.8518 10.859100 21.028400  9.696000
236  2 -0.8214 13.102500  2.104120  9.695650
237  2 -0.9102 15.094600  5.772830  9.768340
238  2 -0.9364  0.233957  9.246910  9.920890
239  2 -0.8643 14.672300 20.583800  9.539310
240  2 -0.8909  0.298368  2.143090  9.992590
241  2 -0.3150  0.187444 14.388900  6.163590
242  2 -0.4004  2.202890 18.144700  6.232530
243  2 -0.3216 17.044100  6.893750  6.204710
244  2 -0.3633  2.031130 10.988700  6.466780
245  2 -0.3251  4.964200 14.474500  6.296160
246  2 -0.2627  6.492120 18.116600  5.967020
247  2 -0.3807  0.588176 21.799900  6.451480
248  2 -0.3515  2.609120  3.472000  6.532340
249  2 -0.2433  4.544980  6.967360  6.081440
250  2 -0.3647  6.386930 10.723600  6.222950
251  2 -0.3374  8.776370 14.517100  6.018910
252  2 -0.3994 10.493500 18.272500  6.324140
253  2 -0.3771  4.594040 -0.083303  6.183380
254  2 -0.3792  6.711210  3.646720  6.284260
255  2 -0.3344  8.679820  7.069160  6.253910
256  2 -0.2699 10.751800 10.670900  6.297700
257  2 -0.3905 12.847000 13.868200  6.498540
258  2 -0.3424 14.975700 17.970800  6.117790
259  2 -0.3177  8.780160 -0.171420  6.030960
260  2 -0.3302 10.851400  3.560180  6.157660
261  2 -0.3389 13.025400  7.060210  6.272280
262  2 -0.3674 14.609800 10.557900  6.497000
263  2 -0.2892 13.086000 -0.332231  6.034080
264  2 -0.2821 15.128600  3.393490  6.392710
265  2 -0.3879  2.117000 13.277600  3.537390
266  2 -0.3657  5.090860 16.455300  3.193820
267  2 -0.3575  2.280690  5.933940  3.399640
268  2 -0.3319  4.242600  9.213280  3.640890
269  2 -0.3165  6.344510 12.927900  3.562160
270  2 -0.2836  8.901930 16.958100  3.538940
271  2 -0.3978  2.765850 20.372700  3.379130
272  2 -0.3643  4.233550  2.010300  3.514860
273  2 -0.3697  6.595300  5.917360  3.538170
274  2 -0.3850  8.377670  9.147190  3.303940
275  2 -0.3228 10.195100 12.691700  3.346030
276  2 -0.3996 12.427200 16.585400  2.979120
277  2 -0.3425  6.733960 20.640100  3.416560
278  2 -0.3317  8.904160  2.123980  3.901950
279  2 -0.3662 10.768300  6.024210  3.538850
280  2 -0.3353 12.654800  9.621810  3.545590
281  2 -0.3627 14.955800 13.520300  3.273680
282  2 -0.2900 17.054200 16.926800  3.759210
283  2 -0.3699 10.960300 20.619500  3.535230
284  2 -0.3614 13.154000  2.338410  3.341150
285  2 -0.3305 15.127100  5.748380  3.619360
286  2 -0.3575  0.000811  9.489210  3.926640
287  2 -0.3780 14.775800 20.582000  3.330210
288  2 -0.2725 17.230200  2.326950  3.702240
289  2 -0.8738  2.339280 15.735100 19.648800
290  2 -0.9211  4.366150 19.179300 19.635400
291  2 -0.8887  2.285410  8.230800 19.611200
292  2 -0.8126  4.220960 12.239600 19.664400
293  2 -0.8841  6.524860 15.113000 19.686000
294  2 -0.9574  8.534730 19.409800 19.412100
295  2 -0.9176  2.217590  0.699495 19.697400
296  2 -0.9274  4.302710  4.450000 19.655900
297  2 -0.8269  6.256860  8.572040 19.936100
298  2 -0.9267  8.446440 11.958800 19.687200
299  2 -0.9491 10.755900 15.709200 19.661800
300  2 -0.8907 12.660000 19.443500 19.428800
301  2 -0.9288  6.150910  0.883021 19.713700
302  2 -0.9056  8.375200  4.438320 19.730600
303  2 -0.8860 10.689100  8.289930 19.714700
304  2 -0.9040 12.500200 12.173600 20.119100
305  2 -0.8819 14.834300 15.804100 19.749100
306  2 -0.8624 -0.169710 19.422700 19.551600
307  2 -0.8650 10.626800  0.829170 19.600400
308  2 -0.9222 12.869500  4.830980 19.619500
309  2 -0.9478 14.852900  8.476310 19.658800
310  2 -0.9040 17.007600 12.193000 20.024400
311  2 -0.8889 14.868300  0.951216 19.589700
312  2 -0.9116  0.234146  4.928520 19.598500
313  2 -0.3385  1.972400 12.991400 16.526300
314  2 -0.3394  4.380770 16.825800 16.121000
315  2 -0.2678  2.567570  5.981990 16.059300
316  2 -0.3090  4.269630  9.387140 16.288200
317  2 -0.3337  6.046320 13.528200 16.152300
318  2 -0.3405  8.417520 16.867100 16.313600
319  2 -0.2293  2.706410 20.832300 15.565400
320  2 -0.3609  4.210960  2.205590 16.369200
321  2 -0.4214  6.480060  5.887040 16.684800
322  2 -0.3049  8.554390  9.341550 16.237800
323  2 -0.2587 10.852400 13.197400 15.868600
324  2 -0.3442 12.836900 16.545400 16.435600
325  2 -0.3217  6.877820 20.936700 16.248500
326  2 -0.2146  8.756460  2.337000 15.824200
327  2 -0.3179 10.544500  5.724440 16.316100
328  2 -0.3717 12.862100  9.713020 16.340700
329  2 -0.3849 14.713400 13.284900 16.765200
330  2 -0.3323  0.267791 16.847400 16.167500
331  2 -0.3102 10.473800 20.900600 16.168700
332  2 -0.3439 12.946000  2.727310 16.071300
333  2 -0.3740 14.825500  5.775980 16.441000
334  2 -0.3146 -0.227729  9.579650 16.201700
335  2 -0.2820 14.890700 20.714800 15.885900
336  2 -0.4241  0.060018  2.188140 16.552700
337  2 -0.3509  2.199300 15.565800 13.367800
338  2 -0.2938  4.622200 19.515200 12.960600
339  2 -0.3434  2.329500  8.428320 13.555700
340  2 -0.2512  4.046260 12.135100 13.734600
341  2 -0.3374  6.498170 16.119300 12.750000
342  2 -0.3194  8.210420 19.318000 12.898800
343  2 -0.3391  2.264080  1.195390 13.048800
344  2 -0.3583  4.735300  4.370620 12.976300
345  2 -0.3217  6.844320  8.102130 13.293700
346  2 -0.4189  8.786800 11.844300 12.874600
347  2 -0.3556 10.324300 15.552200 13.129400
348  2 -0.3971 12.842000 19.130100 13.107700
349  2 -0.2323  6.780490  0.856727 13.359100
350  2 -0.3211  8.544390  4.645290 13.233200
351  2 -0.3301 11.096900  8.609200 13.124700
352  2 -0.2486 13.219800 12.089600 13.481600
353  2 -0.3328 15.099100 15.711500 13.189800
354  2 -0.3960  0.429048 19.267800 13.071100
355  2 -0.3206 11.169400  1.293490 13.396100
356  2 -0.3047 13.071200  5.121470 13.369700
357  2 -0.3199 14.913200  8.235640 13.395000
358  2 -0.2721  0.349620 11.967300 13.572000
359  2 -0.3616 14.858900  1.164060 13.212300
360  2 -0.3400  0.324377  4.528010 13.473600

