Generated by pymatgen.io.lammps.data.LammpsData

320  atoms

  2  atom types

0.000000 16.864293  xlo xhi
0.000000 23.165087  ylo yhi
0.000000 24.472453  zlo zhi

Masses

1  208.9804
2   78.9600

Atoms

1    1  0.8276  1.053040 11.659800 10.396800
2    1  0.8244  1.312830 11.597700 22.720500
3    1  0.7917  1.260560 23.339000 10.476900
4    1  0.8835  1.318350 -0.435197 23.390400
5    1  0.8406  5.648070 11.158600  9.789620
6    1  0.8394  5.459080 11.121500 22.589400
7    1  0.7791  5.205620 23.041600 10.522500
8    1  0.7810  5.129840 22.516300 22.272600
9    1  0.8301  9.548030 11.367600 10.134300
10   1  0.8706  9.439060 11.054900 22.650000
11   1  0.8886  9.662950 23.032800 11.131200
12   1  0.8575  9.673990 23.057100 22.542900
13   1  0.8421 14.006100 11.354500 10.583900
14   1  0.8457 13.919600 11.415100 22.736800
15   1  0.8140 13.714800 22.879700 10.981600
16   1  0.7880 13.881200 -0.253249 22.401700
17   1  0.8558  3.645450  0.396460  1.972070
18   1  0.8276  3.564840  0.818098 13.850000
19   1  0.8015  3.596210 12.538600  1.873530
20   1  0.8226  3.254320 12.231400 13.985500
21   1  0.8246  7.489590  0.632885  1.975840
22   1  0.8246  7.477380  0.606650 14.311800
23   1  0.8192  7.537130 11.973800  2.149440
24   1  0.8404  7.332240 12.202600 13.619300
25   1  0.7953 12.009100  0.823260  2.307710
26   1  0.7814 11.588300  0.775407 14.466600
27   1  0.8650 11.853600 11.724700  1.926370
28   1  0.8555 11.465400 11.995400 13.950500
29   1  0.7805 15.784100  0.543629  2.071490
30   1  0.8350 16.265700  1.154130 14.140300
31   1  0.8135 15.845900 12.662800  2.192350
32   1  0.8580 15.911300 12.686500 14.408000
33   1  0.8400  3.557960  5.887970  7.971490
34   1  0.8348  2.885770  5.579580 20.829800
35   1  0.8471  3.540790 17.034600  8.353480
36   1  0.8283  3.575890 17.538600 20.725900
37   1  0.8274  7.474700  5.650440  7.793930
38   1  0.8444  7.359200  4.919980 20.480100
39   1  0.7783  7.712380 17.135100  8.124520
40   1  0.7774  7.499590 17.121000 20.219100
41   1  0.8422 11.991100  5.554990  7.845480
42   1  0.8630 11.676000  5.838040 20.409200
43   1  0.7925 11.894000 17.246900  8.629680
44   1  0.7979 11.545300 16.961800 20.675700
45   1  0.8382 15.793400  5.477740  7.971190
46   1  0.8624 15.800500  5.538540 20.373500
47   1  0.8061 15.507600 16.993000  8.321940
48   1  0.8135 15.799900 16.840900 20.340500
49   1  0.8248  0.850026  6.095330  4.766210
50   1  0.7852  1.265340  6.404600 16.587600
51   1  0.7682  1.010840 18.062700  4.551710
52   1  0.8680  1.314210 18.129600 16.862700
53   1  0.8874  5.545850  6.642110  4.567650
54   1  0.8633  5.463510  6.460680 16.490500
55   1  0.8398  5.557260 18.008500  5.036060
56   1  0.7771  5.545330 17.926600 16.944200
57   1  0.8390  9.980830  6.596110  4.141230
58   1  0.8590  9.662260  6.051020 16.738000
59   1  0.8675  9.833020 17.768400  4.748660
60   1  0.8613  9.834800 17.708700 16.827000
61   1  0.8393 13.925500  5.932150  4.010540
62   1  0.7971 13.507200  6.991630 16.548000
63   1  0.7821 14.091700 18.018300  4.579450
64   1  0.8064 13.755900 17.854700 16.488100
65   1  0.8634  1.186480  2.001730  5.943250
66   1  0.8142  1.473810  2.224470 18.274500
67   1  0.8292  1.713230 13.753000  6.422820
68   1  0.8691  1.470370 13.992600 18.627300
69   1  0.7632  5.531390  2.436000  6.060860
70   1  0.8267  5.153610  2.123840 18.615500
71   1  0.8195  5.694520 13.697200  5.363800
72   1  0.8182  5.697890 13.755600 18.046400
73   1  0.8031  9.784240  1.941840  6.085530
74   1  0.8199  9.566650  2.275120 18.608900
75   1  0.7759  9.488070 13.276500  5.846070
76   1  0.8279  9.607930 13.839200 18.485500
77   1  0.8246 13.785800  2.007830  5.773290
78   1  0.8517 13.730200  2.186600 18.275100
79   1  0.8277 13.765800 13.525900  5.195580
80   1  0.8097 13.800400 13.772100 18.966600
81   1  0.8015  3.228040 10.146200  6.141480
82   1  0.8038  3.101780  9.831860 18.700200
83   1  0.8166  3.000420 21.285100  6.434050
84   1  0.8151  3.003900 21.695600 19.073900
85   1  0.8271  8.039260  9.683350  6.477940
86   1  0.7820  7.665000  9.625810 19.309800
87   1  0.8176  7.522210 21.456900  6.309530
88   1  0.8648  7.834740 21.642100 18.997200
89   1  0.7851 12.054700  9.504910  6.344760
90   1  0.7466 11.353900  9.466040 18.708400
91   1  0.8888 11.816200 21.432200  5.940460
92   1  0.8222 11.676100 21.586600 18.505400
93   1  0.8256 15.840400  9.378640  6.596490
94   1  0.8236 16.001100 10.410000 18.839300
95   1  0.8384 16.183800 21.633400  6.938200
96   1  0.8226 15.825800 21.422300 18.470900
97   1  0.7992  3.137200  8.284510 11.940900
98   1  0.8458  3.261620  7.686780  0.590021
99   1  0.7809  2.945420 19.688900 12.742100
100  1  0.8209  3.618600 19.754300  0.720051
101  1  0.8581  7.333190  7.953180 12.833400
102  1  0.8445  7.656350  8.172420  0.341903
103  1  0.8446  7.293220 19.547600 12.883300
104  1  0.8458  7.750650 19.792800  0.100986
105  1  0.8349 11.611300  8.136750 12.153100
106  1  0.8686 11.881200  7.720140  0.640832
107  1  0.8304 11.616400 19.211300 13.010700
108  1  0.8586 11.600700 19.463700 -0.005340
109  1  0.8225 15.974500  8.249290 12.921200
110  1  0.8436 16.257300  7.811670  0.596783
111  1  0.7746 16.100300 19.988500 12.785600
112  1  0.8251 16.215100 19.569900  1.191190
113  1  0.7881  1.173380  3.940270  0.146979
114  1  0.8433  1.171560  4.322090 12.457000
115  1  0.7860  1.513570 15.658300  0.388347
116  1  0.8120  1.133520 15.500300 12.338400
117  1  0.8058  5.811640  4.140830 -0.186413
118  1  0.8301  5.726500  4.062730 12.103500
119  1  0.8611  5.774330 15.817900 23.966600
120  1  0.8041  5.263560 15.539600 11.801100
121  1  0.8466  9.700880  3.944930 -0.267376
122  1  0.7839  9.379020  3.944090 12.745900
123  1  0.8419  9.643850 15.241100 24.361100
124  1  0.8404  9.254120 15.387800 11.935700
125  1  0.7817 14.182800  3.236420 24.254300
126  1  0.8269 13.712800  4.004660 12.015500
127  1  0.8156 13.510300 15.965900 -0.508279
128  1  0.7905 14.002400 15.569300 12.756300
129  2 -0.4081  1.560020  3.807880  8.658050
130  2 -0.5660  0.924740  3.786010 20.892300
131  2 -0.4795  1.052740 15.308800  8.929900
132  2 -0.5078  1.512870 15.397900 20.932100
133  2 -0.5209  5.284460  3.720420  8.692240
134  2 -0.5405  5.110200  3.502760 21.282200
135  2 -0.4947  5.623470 15.154500  8.533820
136  2 -0.5102  5.280860 15.245200 21.418200
137  2 -0.4726  9.688110  4.141440  8.725590
138  2 -0.5924  9.680760  3.920280 21.258000
139  2 -0.5100  9.588090 15.170800  8.765890
140  2 -0.5497  9.120430 14.795500 21.314200
141  2 -0.5071 13.606400  3.532670  8.606730
142  2 -0.5252 13.795000  3.689490 20.754500
143  2 -0.4856 13.706600 15.306400  9.224300
144  2 -0.6539 13.635000 15.184200 21.195800
145  2 -0.4600  3.264360  8.335620  3.664030
146  2 -0.5211  3.240320  8.336170 15.917200
147  2 -0.5380  3.266560 19.936200  3.862860
148  2 -0.4675  2.804810 20.178800 16.191000
149  2 -0.4870  7.657050  8.317270  3.417700
150  2 -0.4681  7.632600  8.228000 16.109400
151  2 -0.4985  7.600760 19.396500  3.915950
152  2 -0.4331  7.591900 19.996000 15.932000
153  2 -0.5676 12.059200  8.185090  3.451780
154  2 -0.5366 11.189800  8.332810 15.958200
155  2 -0.4952 11.805600 19.585900  3.801590
156  2 -0.5300 11.699800 19.904500 16.025300
157  2 -0.5142 15.939400  7.998010  3.705600
158  2 -0.4735 16.232000  8.644910 16.215000
159  2 -0.5891 16.004400 20.036800  3.955800
160  2 -0.5330 16.028200 19.767100 16.110700
161  2 -0.5639  2.853230  9.756120  9.408400
162  2 -0.4988  3.210150  9.456230 22.481300
163  2 -0.4771  3.177970 20.993300  9.787360
164  2 -0.5493  2.915670 20.745100 22.202000
165  2 -0.5127  7.747310  9.269150  9.643440
166  2 -0.6583  7.612130  9.393840 22.091300
167  2 -0.4691  7.362780 21.243100 10.596700
168  2 -0.5357  7.776060 20.947700 21.722400
169  2 -0.5601 11.914700  9.559020  9.720660
170  2 -0.4952 11.719500  9.373300 22.447200
171  2 -0.4102 11.459900 21.127800 10.028300
172  2 -0.4696 11.132100 20.817500 21.476500
173  2 -0.5572 16.073100  9.617280 10.204000
174  2 -0.4719 16.124700  9.533780 22.344700
175  2 -0.5550 15.946700 21.277800 10.225700
176  2 -0.4353 16.186400 20.939100 22.755600
177  2 -0.4851  1.429190  2.427800  2.855690
178  2 -0.5377  1.529480  2.755640 14.914500
179  2 -0.5816  1.669490 14.132000  2.855030
180  2 -0.4923  1.477980 14.079100 15.079900
181  2 -0.4653  5.434820  2.690210  2.438960
182  2 -0.4835  5.474100  2.518200 15.094200
183  2 -0.5698  5.887520 14.221000  2.778700
184  2 -0.5289  5.439430 14.193900 14.280900
185  2 -0.4944  9.426060  2.524810  3.061090
186  2 -0.5598  9.095190  2.647500 15.428700
187  2 -0.5287  9.783280 13.632300  2.578700
188  2 -0.5168  9.445020 13.753600 14.384200
189  2 -0.6419 13.985400  2.587030  2.487790
190  2 -0.4861 13.937400  2.682930 14.798900
191  2 -0.5534 13.539300 14.085100  2.592640
192  2 -0.5491 13.696400 14.135200 14.976200
193  2 -0.4842  0.989668 11.244900  4.690460
194  2 -0.5154  1.288320 11.355400 17.249400
195  2 -0.5650  1.300100 22.695600  4.853250
196  2 -0.5035  0.979228 22.944900 17.036100
197  2 -0.5534  5.543910 10.961500  4.504520
198  2 -0.4693  5.297620 11.387600 16.742500
199  2 -0.5587  5.784430 22.651800  4.401560
200  2 -0.4643  5.465650 22.333500 17.487000
201  2 -0.5954  9.921910 10.516200  4.635510
202  2 -0.4682  9.353830 11.282600 17.223800
203  2 -0.5747  9.520990 22.420600  4.758000
204  2 -0.5533  9.598700 22.799300 17.081600
205  2 -0.5242 13.892800 10.940400  4.398000
206  2 -0.4686 13.814700 10.993900 16.977000
207  2 -0.5772 13.851700 22.614100  4.346680
208  2 -0.5352 13.754000 23.013900 16.918400
209  2 -0.5340  3.131830  0.590130  7.735160
210  2 -0.6247  3.199330  0.944271 20.147600
211  2 -0.5533  4.010950 12.580200  7.517850
212  2 -0.5279  3.116020 12.324800 20.105200
213  2 -0.4956  7.688400  0.529066  7.955020
214  2 -0.6067  7.549570  0.931230 20.106100
215  2 -0.5753  7.502320 12.279100  7.448500
216  2 -0.5390  7.006560 12.413500 20.132000
217  2 -0.5322 11.609600  0.646227  7.323540
218  2 -0.5904 11.682600  1.110720 20.013100
219  2 -0.4618 11.558200 12.451200  7.600870
220  2 -0.5642 11.598300 12.239400 20.187400
221  2 -0.5194 16.111600  1.085690  7.934180
222  2 -0.5414 15.424500  0.444680 20.161100
223  2 -0.4444 15.356200 12.144300  7.633980
224  2 -0.6310 15.950800 12.622700 20.182800
225  2 -0.4694  3.557270  5.350770  2.056150
226  2 -0.5009  3.434040  5.366940 13.616900
227  2 -0.4967  3.870080 16.970000  1.656810
228  2 -0.5161  3.293600 16.918800 13.761600
229  2 -0.4744  7.836440  5.496080  1.651210
230  2 -0.5406  7.147490  5.448610 14.359300
231  2 -0.4337  7.677730 16.918400  1.249470
232  2 -0.5276  7.737530 16.691900 13.596600
233  2 -0.5137 11.525700  5.232360  1.724320
234  2 -0.5185 11.790500  5.653910 13.864400
235  2 -0.4656 11.554900 16.788400  1.508410
236  2 -0.5215 11.443300 16.690700 14.095600
237  2 -0.5642 15.911200  5.213000  1.718950
238  2 -0.4922 15.604300  5.630800 14.112700
239  2 -0.5717 15.764300 16.863100  1.711060
240  2 -0.5670 15.989800 17.174600 14.042000
241  2 -0.5196  1.164900  6.728400 11.036900
242  2 -0.5824  1.232390  6.512370 23.362800
243  2 -0.4658  1.085810 18.371200 10.819700
244  2 -0.4551  1.367910 18.327100 23.654500
245  2 -0.5106  5.615610  6.378490 10.647200
246  2 -0.5123  5.198970  6.497290 22.740800
247  2 -0.4925  5.300080 18.430700 10.748200
248  2 -0.5613  5.569070 18.338300 22.962300
249  2 -0.4610  9.436470  6.593000 11.080600
250  2 -0.5010  9.789540  6.777910 23.131800
251  2 -0.5243  9.955070 18.078000 11.240300
252  2 -0.5624  9.510690 18.226800 23.198300
253  2 -0.5038 13.975100  6.696860 10.918600
254  2 -0.4653 13.857600  6.399000 23.377600
255  2 -0.5353 13.596700 18.302300 11.153400
256  2 -0.5280 13.717800 18.315000 22.779500
257  2 -0.4805  1.441340 10.305800  1.243630
258  2 -0.5886  1.047730 10.483200 13.367700
259  2 -0.6531  1.632790 21.676500  1.368290
260  2 -0.6506  1.425530 22.389000 13.451800
261  2 -0.5686  5.328930  9.779200  0.920382
262  2 -0.6676  5.597280  9.901920 12.557300
263  2 -0.6794  5.576970 22.090400  0.542972
264  2 -0.6129  5.330530 21.871500 13.427200
265  2 -0.6177  9.633410 10.103100  0.858245
266  2 -0.6321  9.441570 10.147400 12.842600
267  2 -0.5658  9.916980 21.582400  0.681867
268  2 -0.6147  9.356210 21.765100 13.405000
269  2 -0.5241 14.063700 10.234800  1.045650
270  2 -0.6058 13.563200 10.361300 13.375700
271  2 -0.5451 13.618300 21.561000  0.770251
272  2 -0.5863 13.693900 22.178900 13.631400
273  2 -0.6293  3.095950  2.161350 11.401600
274  2 -0.5625  3.129050  1.571710 23.840700
275  2 -0.6217  2.936190 13.508000 11.257300
276  2 -0.6001  3.451780 13.379700 23.756400
277  2 -0.6958  7.663490  1.956800 11.783100
278  2 -0.5759  7.639520  1.769460 23.651700
279  2 -0.6287  7.073800 13.245800 11.003100
280  2 -0.5894  7.776200 12.928500 24.046400
281  2 -0.6623 11.509700  1.716660 11.718200
282  2 -0.6297 11.273700  1.522950 23.923700
283  2 -0.5477 11.671200 13.131500 11.156700
284  2 -0.5558 11.863700 13.143600 23.772400
285  2 -0.6241 15.793200  2.078870 11.499100
286  2 -0.6774 16.061500  1.394540 23.759000
287  2 -0.7010 16.123100 13.346700 11.992600
288  2 -0.5688 15.755400 13.412900 23.780900
289  2 -0.5872  3.183290  4.559340  5.546070
290  2 -0.5786  3.395450  4.421390 17.626500
291  2 -0.6048  3.143200 16.191200  5.759490
292  2 -0.5990  3.316450 16.200200 17.830000
293  2 -0.6214  7.070480  4.794620  5.066260
294  2 -0.5787  7.407330  4.405950 17.841400
295  2 -0.6764  7.617880 16.299100  5.545420
296  2 -0.7005  7.640430 15.784500 17.726300
297  2 -0.6355 11.954900  4.127430  5.253290
298  2 -0.6208 11.743200  4.672930 17.739500
299  2 -0.6121 12.201200 16.282900  5.422210
300  2 -0.6153 11.704500 15.820300 17.849200
301  2 -0.6693 15.845700  4.028940  5.449770
302  2 -0.5056 16.011800  4.349490 17.326100
303  2 -0.5778 16.296900 15.277500  5.919100
304  2 -0.6071 16.261800 16.017900 17.671300
305  2 -0.6282  0.954835  7.452040  7.211360
306  2 -0.5558  0.616568  7.681340 19.669600
307  2 -0.5347  1.074020 18.961400  7.297210
308  2 -0.5608  1.157690 19.264200 19.445400
309  2 -0.6632  5.540660  7.835600  6.920950
310  2 -0.5249  4.920420  7.394330 19.521800
311  2 -0.6038  5.423900 19.213000  7.492250
312  2 -0.6340  5.547040 19.248100 19.348300
313  2 -0.6622  9.749330  7.427730  6.879340
314  2 -0.6444  9.354850  7.108240 19.341100
315  2 -0.5777 10.127300 19.400400  7.194610
316  2 -0.6052  9.838870 18.725700 19.157400
317  2 -0.7156 14.072700  7.290690  6.819470
318  2 -0.6120 13.707200  7.512200 19.546400
319  2 -0.5878 14.250100 19.921400  7.064360
320  2 -0.5442 13.430700 18.810500 19.161500

