Generated by pymatgen.io.lammps.data.LammpsData

80  atoms

 2  atom types

0.000000 12.691967  xlo xhi
0.000000 12.311531  ylo yhi
0.000000 14.084790  zlo zhi

Masses

1  106.42
2   78.96

Atoms

1   1  1.124170  1.452460 14.109000
2   1  1.215240  1.460350  7.038360
3   1  1.124170  7.608220 14.109000
4   1  1.215240  7.616120  7.038360
5   1  7.670670  1.351390  0.050465
6   1  7.553730  1.487200  7.015930
7   1  7.670670  7.507150  0.050466
8   1  7.553730  7.642960  7.015930
9   1  4.329100  1.474950  0.193979
10  1  4.447970  1.593130  7.209980
11  1  4.329100  7.630720  0.193980
12  1  4.447970  7.748900  7.209980
13  1 10.684700  1.414980 13.932900
14  1 10.641500  1.363490  6.862400
15  1 10.684700  7.570740 13.932900
16  1 10.641500  7.519260  6.862400
17  1  1.124170  4.589080 14.109000
18  1  1.215240  4.581190  7.038360
19  1  1.124170 10.744800 14.109000
20  1  1.215240 10.737000  7.038360
21  1  7.670670  4.690150  0.050465
22  1  7.553730  4.554350  7.015930
23  1  7.670670 10.845900  0.050465
24  1  7.553730 10.710100  7.015930
25  1  4.329100  4.566590  0.193980
26  1  4.447970  4.448410  7.209980
27  1  4.329100 10.722400  0.193979
28  1  4.447970 10.604200  7.209980
29  1 10.684700  4.626570 13.932900
30  1 10.641500  4.678050  6.862400
31  1 10.684700 10.782300 13.932900
32  1 10.641500 10.833800  6.862400
33  2  2.880680  3.020770  1.497850
34  2  2.791340  3.020770  8.525670
35  2  2.880680  9.176540  1.497850
36  2  2.791340  9.176540  8.525670
37  2  9.208030  3.020770  1.057280
38  2  9.300000  3.020770  8.039050
39  2  9.208030  9.176540  1.057280
40  2  9.300000  9.176540  8.039050
41  2 12.123000  1.254430  1.751830
42  2 12.141500  1.144820  8.763420
43  2 12.123000  7.410200  1.751830
44  2 12.141500  7.300580  8.763420
45  2  6.080560  1.611620  1.919530
46  2  6.188090  1.812760  8.942130
47  2  6.080560  7.767380  1.919530
48  2  6.188090  7.968530  8.942130
49  2 12.123000  4.787110  1.751830
50  2 12.141500  4.896720  8.763420
51  2 12.123000 10.942900  1.751830
52  2 12.141500 11.052500  8.763420
53  2  6.080560  4.429930  1.919530
54  2  6.188090  4.228780  8.942130
55  2  6.080560 10.585700  1.919530
56  2  6.188090 10.384500  8.942130
57  2  2.963550  1.813580  5.319940
58  2  2.986910  1.819200 12.312200
59  2  2.963550  7.969350  5.319940
60  2  2.986910  7.974970 12.312200
61  2  8.909580  1.139210  5.101880
62  2  8.950310  1.213790 12.149600
63  2  8.909580  7.294980  5.101880
64  2  8.950310  7.369550 12.149600
65  2  2.963550  4.227960  5.319940
66  2  2.986910  4.222340 12.312200
67  2  2.963550 10.383700  5.319940
68  2  2.986910 10.378100 12.312200
69  2  8.909580  4.902330  5.101880
70  2  8.950310  4.827750 12.149600
71  2  8.909580 11.058100  5.101880
72  2  8.950310 10.983500 12.149600
73  2 -0.386371 12.254400  5.545590
74  2 -0.327315 12.254400 12.580000
75  2 -0.386371  6.098650  5.545590
76  2 -0.327314  6.098650 12.580000
77  2  5.798760 -0.057112  6.020480
78  2  5.796900 12.254400 13.031600
79  2  5.798760  6.098650  6.020480
80  2  5.796900  6.098650 13.031600

