Generated by pymatgen.io.lammps.data.LammpsData

360  atoms

  2  atom types

0.000000 16.677463  xlo xhi
0.000000 21.699897  ylo yhi
0.000000 28.493178  zlo zhi

Masses

1  208.9804
2   78.9600

Atoms

1    1  0.7590  1.646630 13.540300 20.123200
2    1  0.8580  4.643890 16.996100 20.452100
3    1  0.8108  1.982010  5.898240 20.176100
4    1  0.7761  4.171490  9.966300 20.114200
5    1  0.7778  6.215990 13.553100 20.418600
6    1  0.8472  8.509880 16.719900 21.674600
7    1  0.8560  1.679060 20.212300 21.879100
8    1  0.7334  4.101550  1.592810 20.143300
9    1  0.7746  5.732060  5.849030 20.951900
10   1  0.7587  8.498440  8.666620 21.490400
11   1  0.8198 10.287900 12.882300 20.987100
12   1  0.8144 12.519800 16.695200 20.632400
13   1  0.8628  6.534760 20.435000 20.189300
14   1  0.7931  8.557210  2.275700 20.297200
15   1  0.8232 10.429900  5.670620 20.601400
16   1  0.7931 12.326000  9.709810 20.584800
17   1  0.8161 14.709800 13.612200 20.531000
18   1  0.7967  0.048737 16.697800 20.077000
19   1  0.8999 10.460000 20.287500 20.292300
20   1  0.8651 12.712300  2.486950 22.413900
21   1  0.8241 13.911500  6.450660 20.051200
22   1  0.8333 16.081100  9.674190 20.295800
23   1  0.8132 14.473300 20.391800 20.359000
24   1  0.8145 15.935800  2.790240 20.279100
25   1  0.8018  1.960240 12.997100 26.127300
26   1  0.7332  4.075830 16.970900 26.535200
27   1  0.7301  2.307080  6.509230 26.856100
28   1  0.7214  4.220950  9.547750 25.370700
29   1  0.7702  6.076240 13.145500 27.167200
30   1  0.7386  8.357000 16.891600 25.994200
31   1  0.8425  1.644650 21.024300 26.467500
32   1  0.7656  4.517890  2.619050 26.691800
33   1  0.7659  5.811720  6.227790 26.175200
34   1  0.7541  8.170640  9.809370 26.362500
35   1  0.7745 10.191900 13.884000 26.805500
36   1  0.8520 12.280000 17.212700 26.519800
37   1  0.7760  6.051670 20.443800 26.404700
38   1  0.8647  8.073370  2.520760 26.783800
39   1  0.8472 10.273800  5.363310 26.338900
40   1  0.7329 12.785600  9.591460 26.822400
41   1  0.7230 13.713100 13.406700 26.792500
42   1  0.7904 16.302000 17.288700 26.381800
43   1  0.8307 10.291200 20.336700 26.713000
44   1  0.7426 12.442100  1.997890 26.991900
45   1  0.7960 14.929500  5.925480 26.616600
46   1  0.6814 16.379500 10.151300 26.647400
47   1  0.7852 14.196900 20.620400 26.708400
48   1  0.7815 16.350300  2.412320 25.025300
49   1  0.7306  1.670660 15.555100  1.214750
50   1  0.7946  3.899380 19.506100  1.104350
51   1  0.8400  2.226970  8.926220  1.651280
52   1  0.8473  4.024620 12.052800  1.803040
53   1  0.7851  5.533690 15.766100  1.644870
54   1  0.7547  7.942820 19.209300  1.063940
55   1  0.7642  1.157070  1.386040  1.432930
56   1  0.7184  4.103930  5.191230  1.290040
57   1  0.8038  6.243870  8.293540  2.136250
58   1  0.7629  8.404770 12.490700  1.297500
59   1  0.8315  9.735440 16.105900  1.839460
60   1  0.8597 12.429900 19.491200  1.502860
61   1  0.7182  5.644140  1.292560  1.814270
62   1  0.8311  7.968260  5.407190  1.771550
63   1  0.7172  9.901110  8.935770  1.124120
64   1  0.7774 12.092000 12.530500  1.797380
65   1  0.7240 14.271700 15.604100  1.363950
66   1  0.8194 16.245600 19.224800  1.902200
67   1  0.8729  9.764740  1.468620  1.685400
68   1  0.7686 13.244600  4.973030  2.279550
69   1  0.7668 14.692800  9.593810  1.518880
70   1  0.7129 16.053000 12.583000  1.502540
71   1  0.7155 13.875900  1.293390  1.534830
72   1  0.8081  0.276785  5.242510  1.991680
73   1  0.7512  1.995080 15.827700  7.785440
74   1  0.7091  4.286320 19.488300  7.676170
75   1  0.7288  2.276770  8.712550  7.505550
76   1  0.8507  3.841330 12.427500  8.041120
77   1  0.7564  6.159020 16.202300  7.321020
78   1  0.8445  7.907360 19.618000  8.281340
79   1  0.8513  1.598530  0.723508  6.909510
80   1  0.8396  3.490880  4.955210  7.252080
81   1  0.8019  6.020820  8.781240  7.744670
82   1  0.7937  8.677260 12.238500  7.594410
83   1  0.7694 10.491100 15.946700  7.985040
84   1  0.7411 12.213600 19.232800  7.682300
85   1  0.8175  5.709680  1.353220  7.236710
86   1  0.7971  8.163990  4.810090  7.212310
87   1  0.7464 10.402500  8.765390  7.580130
88   1  0.8071 12.382000 12.187700  7.885670
89   1  0.7806 14.696100 15.487400  7.710280
90   1  0.7550 16.582900 18.909100  7.499340
91   1  0.9305 10.141200  1.654890  7.320310
92   1  0.8349 11.901000  5.250300  7.571970
93   1  0.6095 14.671600  8.479940  7.154060
94   1  0.7081 16.622200 11.829400  7.181000
95   1  0.8773 14.279700  0.924434  5.320840
96   1  0.7613 15.752900  4.891590  7.654070
97   1  0.8757 16.277900 14.639800 10.757700
98   1  0.7509  1.812060 18.272500 10.898100
99   1  0.6884 15.570100  7.830730 10.779500
100  1  0.8578  2.274070 11.141100 11.468500
101  1  0.8275  3.725090 14.920000 13.148100
102  1  0.7785  5.547070 18.216000 11.156100
103  1  0.7379 16.027600 21.627300 10.639400
104  1  0.9062  1.548080  3.412170 10.542700
105  1  0.7572  3.104140  7.659650 10.964300
106  1  0.8956  6.334740 11.452500 10.885200
107  1  0.7630  7.853350 14.712000 10.930300
108  1  0.7223 10.202500 18.784600 11.355600
109  1  0.8346  3.821560  0.163003 10.641600
110  1  0.7477  5.452620  3.648440 10.509500
111  1  0.7586  7.061750  7.236290 10.807600
112  1  0.8751 10.584300 11.461200 11.159900
113  1  0.7837 12.139500 14.953600 11.614400
114  1  0.6999 14.545700 18.710900 10.741700
115  1  0.7923  8.438320  0.275040 11.016100
116  1  0.7925 10.038500  3.700780 10.710600
117  1  0.7321 12.407200  7.656080 11.002400
118  1  0.7932 14.639100 11.160500 10.702200
119  1  0.6014 12.283300 21.595700 10.773000
120  1  0.8470 13.909800  3.207150 10.760500
121  1  0.8085 16.549700 14.510000 16.770400
122  1  0.8306  2.094260 18.675900 17.326700
123  1  0.7351 16.192400  6.874000 16.530600
124  1  0.7146  1.736160 11.195400 16.975600
125  1  0.7016  4.192870 14.748200 17.168100
126  1  0.7847  6.558060 18.445000 17.403500
127  1  0.8662 16.085300  0.172570 16.725100
128  1  0.7305  1.675160  2.936680 16.470300
129  1  0.8202  3.748220  6.699570 16.729900
130  1  0.8661  6.292740 11.020300 17.053300
131  1  0.7241  8.301680 15.261600 17.034900
132  1  0.7985 10.443700 18.410600 17.009300
133  1  0.7193  4.176000 21.473900 17.047800
134  1  0.7504  6.179920  3.835470 16.646200
135  1  0.8175  8.447640  7.815940 17.248900
136  1  0.7889 10.561500 10.848900 17.384400
137  1  0.7963 12.102100 14.042700 16.816800
138  1  0.7658 14.713900 18.343400 16.911900
139  1  0.8561  8.218920  0.025075 16.579700
140  1  0.7783 10.104500  3.632950 17.306100
141  1  0.8741 11.756900  7.192070 16.617600
142  1  0.8599 14.508000 10.796700 17.036000
143  1  0.7771 12.324700 21.514600 16.660200
144  1  0.8143 14.185100  3.705050 16.685000
145  2 -0.8721 16.289000 14.717800 28.091000
146  2 -0.7722  1.499260 18.624900 28.305900
147  2 -0.7910  0.201688  7.302950  0.064222
148  2 -0.7851  1.742080 11.240600  0.145822
149  2 -0.8221  3.617590 14.125800 28.488000
150  2 -0.8731  6.424200 17.757600 27.977100
151  2 -0.8175 15.909500  0.160264 28.336900
152  2 -0.7041  2.102240  3.705410 27.851100
153  2 -0.8640  4.104220  7.917190 28.434700
154  2 -0.8075  6.256210 10.981400  0.450022
155  2 -0.8571  7.623880 14.891000  0.377322
156  2 -0.8592 10.621300 18.147600 28.194400
157  2 -0.8007  3.717860  0.150961 27.949200
158  2 -0.8752  6.268140  3.879180  0.036210
159  2 -0.7631  7.885900  7.013240 27.978600
160  2 -0.8598 10.517400 11.447400 28.376200
161  2 -0.9036 12.037700 15.129400 28.319600
162  2 -0.8574 14.374500 18.391600 28.489400
163  2 -0.8331  7.946800  0.040488 27.952500
164  2 -0.7603 10.139600  3.360590 28.284400
165  2 -0.6402 11.974200  6.922740 28.268700
166  2 -1.0252 14.054700 11.271000 28.359600
167  2 -0.8815 11.657700  0.121403  0.292222
168  2 -0.7597 14.953900  4.128900 28.472400
169  2 -0.2962  1.740000 15.823600 24.816200
170  2 -0.4455  3.747680 19.384500 25.102900
171  2 -0.3537  1.591690  8.972640 24.623000
172  2 -0.3997  4.156740 12.927900 24.967900
173  2 -0.3510  6.001030 15.857100 24.699300
174  2 -0.3855  8.609300 19.661200 24.797300
175  2 -0.4060  2.267380  1.113460 24.527300
176  2 -0.3854  3.989030  5.089750 24.603100
177  2 -0.5481  6.470880  8.129390 24.712500
178  2 -0.5354  8.310070 12.599400 25.759300
179  2 -0.4529 10.701600 15.811400 24.775200
180  2 -0.4599 12.262300 19.491500 25.106200
181  2 -0.2962  6.184440  1.372790 24.897100
182  2 -0.3299  7.729240  4.169480 24.830900
183  2 -0.3495 10.353000  8.067060 25.138800
184  2 -0.2296 12.490000 11.923400 24.390200
185  2 -0.2493 14.399700 15.660500 24.413600
186  2 -0.5184 16.374000 19.912700 25.065000
187  2 -0.3297 10.059400  1.396950 25.064300
188  2 -0.4064 12.512500  4.897590 24.966300
189  2 -0.3357 14.762700  8.507730 24.927000
190  2 -0.2778 16.176000 12.122400 24.465900
191  2 -0.6305 13.682600  1.666510 24.833800
192  2 -0.3184  0.680359  5.583320 24.854600
193  2 -0.5555 16.568200 14.745500 21.653500
194  2 -0.4286  2.292480 17.788300 21.903600
195  2 -0.3027 15.955100  7.351970 21.667400
196  2 -0.3391  1.839350 10.806400 21.776300
197  2 -0.3115  4.006450 14.397400 22.086900
198  2 -0.3990  6.383550 18.233600 22.353800
199  2 -0.5102 15.839400  0.226181 21.877700
200  2 -0.3583  1.833640  3.458030 21.890700
201  2 -0.3609  3.517830  8.033020 22.121700
202  2 -0.3527  6.314030 10.359600 22.504700
203  2 -0.4855  8.058200 13.649000 22.099200
204  2 -0.3517 10.883900 17.811700 22.424700
205  2 -0.2988  4.645010 21.221500 22.160800
206  2 -0.3078  5.672000  3.070460 21.901700
207  2 -0.5023  7.957280  6.075940 22.078200
208  2 -0.4140 10.458700 10.841200 22.530000
209  2 -0.4113 12.128200 14.648900 22.135100
210  2 -0.3466 14.598500 18.445500 22.196800
211  2 -0.3311  7.978650  0.160391 21.845000
212  2 -0.4910 10.231300  3.545280 22.152100
213  2 -0.4138 12.192900  6.991740 22.208800
214  2 -0.3143 14.551300 10.912100 22.258900
215  2 -0.3931 12.241400 21.062200 22.030500
216  2 -0.5028 14.736300  4.125640 22.131100
217  2 -0.7553  1.687790 13.205300  9.844210
218  2 -0.7789  4.285280 16.221800  9.733730
219  2 -0.7349  1.452890  5.584300  9.206100
220  2 -0.8344  4.400490 10.006800  9.525360
221  2 -0.7755  6.144760 13.290200  9.179900
222  2 -0.8537  8.052880 17.385900  9.482160
223  2 -0.8891  1.603530 20.586100  8.850980
224  2 -0.8555  3.577510  2.117090  8.957100
225  2 -0.8326  5.291090  6.148550  9.027910
226  2 -0.7701  7.931190  9.769900  9.640740
227  2 -0.9024 10.358900 13.583200  9.318690
228  2 -0.8928 12.628900 17.324600  9.702050
229  2 -0.9149  5.866240 20.631500  9.489220
230  2 -0.8304  8.004300  2.354780  8.809650
231  2 -0.8389  9.791180  5.920380  8.811880
232  2 -0.9583 12.126800 10.273900  9.727900
233  2 -0.8967 14.412300 13.494400  9.362510
234  2 -0.9363 16.619700 17.064000  9.586820
235  2 -0.8498 10.236600 21.014100  9.012950
236  2 -0.7860 11.810300  2.950590  8.962170
237  2 -0.8751 13.784500  5.833210  9.648680
238  2 -0.8585  0.366812  9.892650  9.769290
239  2 -0.6665 14.700700 21.683500  8.197810
240  2 -0.6729 16.076500  2.208150  9.374130
241  2 -0.3729  0.132898 14.490200  5.802750
242  2 -0.4443  1.913240 17.778100  6.170340
243  2 -0.4459  0.323849  7.270460  6.096420
244  2 -0.4515  2.437870 10.940100  6.185730
245  2 -0.3751  3.976230 14.491700  6.173440
246  2 -0.3558  6.271190 18.496700  5.903280
247  2 -0.3670  0.325537 20.812000  5.154920
248  2 -0.3700  1.278350  3.843070  5.970570
249  2 -0.3333  4.364090  7.540790  5.818070
250  2 -0.3485  6.104250 11.143300  6.256300
251  2 -0.2285  8.753570 15.114900  5.582100
252  2 -0.2440 10.160200 18.362100  5.987690
253  2 -0.4030  3.919990  0.006702  5.748060
254  2 -0.3632  5.431740  3.678750  5.467130
255  2 -0.3824  8.549670  7.509350  6.080730
256  2 -0.4265 10.559200 11.205600  6.133710
257  2 -0.4053 12.210200 15.029400  6.484620
258  2 -0.3338 14.154200 17.954200  5.812190
259  2 -0.4072  7.952680 21.583800  6.533260
260  2 -0.3471 10.019500  4.097580  5.441080
261  2 -0.3813 12.546700  7.839720  5.687560
262  2 -0.4032 14.316700 10.922300  5.744880
263  2 -0.3690 11.659400 21.471900  6.170070
264  2 -0.4640 13.456200  3.582320  6.078970
265  2 -0.3697  2.121380 13.444100  3.143720
266  2 -0.3743  3.609660 17.557300  2.979130
267  2 -0.3861  2.184940  6.376890  3.260090
268  2 -0.2781  4.196970  9.741900  3.757880
269  2 -0.2704  7.063490 13.607200  3.735540
270  2 -0.3296  7.566770 17.114900  3.304070
271  2 -0.4053  2.205600 21.023900  2.581000
272  2 -0.2736  3.386910  2.810550  3.665530
273  2 -0.5299  6.034420  6.098340  3.180860
274  2 -0.3864  8.558130 10.162900  3.166840
275  2 -0.2471 10.468100 14.184800  3.692690
276  2 -0.3145 12.139500 16.952000  3.099530
277  2 -0.4238  5.849680 20.438200  2.754160
278  2 -0.3844  8.266220  3.169070  3.298460
279  2 -0.2314 10.281800  6.857250  3.512730
280  2 -0.3380 12.485700  9.932540  3.045320
281  2 -0.3285 13.656100 13.677000  3.685130
282  2 -0.2541 16.245000 16.997700  3.872930
283  2 -0.2967  9.917670 20.943200  3.096100
284  2 -0.5049 12.149200  2.444730  3.103850
285  2 -0.3495 14.980500  7.008460  3.444620
286  2 -0.4121  0.158639 10.280400  3.072330
287  2 -0.5442 13.922800 20.616100  3.353750
288  2 -0.5212 16.069900  2.785830  3.463530
289  2 -0.8612  2.004110 16.026400 18.432300
290  2 -0.8260  4.379670 19.249900 19.191400
291  2 -0.7210  1.611440  8.264370 18.875300
292  2 -0.8716  4.295470 12.444200 18.675700
293  2 -0.8678  6.586220 16.421000 18.999900
294  2 -0.8326  8.557010 19.158000 19.144000
295  2 -0.7044  1.281150  0.938030 18.623400
296  2 -0.8407  3.907990  4.777770 18.271200
297  2 -0.7174  5.953770  8.730620 18.418200
298  2 -0.7400  8.314850 11.577300 19.027800
299  2 -0.7274 10.220500 15.894600 19.298100
300  2 -0.8884 12.288300 19.136000 18.684100
301  2 -0.9014  6.174410  0.980332 18.567800
302  2 -0.7532  7.893530  5.297590 18.557400
303  2 -0.8612 10.500300  7.942240 18.874700
304  2 -0.8711 12.579800 11.947700 18.806300
305  2 -0.8477 14.664100 15.423400 18.417600
306  2 -0.7968  0.093737 19.491200 18.884000
307  2 -0.8317  9.833120  0.764556 18.616500
308  2 -0.8543 12.010400  4.949850 18.525200
309  2 -0.8281 13.710200  8.539920 18.631000
310  2 -0.9025 16.394200 11.966900 18.732100
311  2 -0.8069 14.382700  1.466260 18.622100
312  2 -0.8221 16.344100  5.169430 18.514800
313  2 -0.5133  1.733970 13.358500 15.168200
314  2 -0.4544  3.760250 17.292400 15.621500
315  2 -0.3879  2.099740  6.087800 14.870700
316  2 -0.3264  4.047640  9.759700 15.380600
317  2 -0.4474  6.229690 13.334900 15.526800
318  2 -0.4276  8.203100 17.709100 15.517200
319  2 -0.4421  1.622780 21.147400 15.745500
320  2 -0.2983  3.876880  2.279160 14.776100
321  2 -0.3315  6.060210  6.471480 15.320700
322  2 -0.3686  8.625160 10.057500 15.647700
323  2 -0.4348 10.344500 13.099900 15.540500
324  2 -0.3666 12.767800 16.809500 15.529300
325  2 -0.3697  6.133930 20.685700 15.137000
326  2 -0.4069  8.673700  2.379280 15.392700
327  2 -0.3259  9.825370  6.280510 15.040600
328  2 -0.4490 12.536400  9.533160 15.810300
329  2 -0.3183 14.349800 13.425700 15.318600
330  2 -0.2461  0.021837 17.529500 15.204700
331  2 -0.4646 10.219600 20.916400 15.324400
332  2 -0.3321 12.205800  2.509630 15.345000
333  2 -0.4134 13.780900  5.917500 15.061200
334  2 -0.3266 16.129200 10.192800 15.158700
335  2 -0.4435 14.548500 20.609000 15.120800
336  2 -0.4262 16.055500  2.429140 15.018100
337  2 -0.3611  1.328090 16.060800 12.911100
338  2 -0.2993  3.825850 19.805100 12.964700
339  2 -0.2994  0.901066  8.629660 12.781800
340  2 -0.4657  4.693820 12.131400 12.739000
341  2 -0.3982  6.401150 16.289200 12.929700
342  2 -0.3702  8.081240 19.764200 12.526800
343  2 -0.2995  1.825020  1.488220 12.549200
344  2 -0.4375  3.392190  5.169390 11.843000
345  2 -0.2695  5.554000  8.424520 12.820900
346  2 -0.3817  8.561620 12.457900 12.667200
347  2 -0.2886  9.615010 16.377900 13.135500
348  2 -0.3578 12.489400 18.719300 13.054400
349  2 -0.3881  5.606680  1.424970 12.142300
350  2 -0.3462  7.908950  4.753480 12.478100
351  2 -0.2635  9.970640  8.879510 12.469700
352  2 -0.3332 12.307400 12.504600 12.880400
353  2 -0.2494 14.557400 15.809900 12.800700
354  2 -0.4811 16.523400 19.511100 12.206900
355  2 -0.3924 10.630800  1.117370 12.536400
356  2 -0.2114 11.952700  4.510170 12.967300
357  2 -0.3760 14.046400  9.201930 12.609300
358  2 -0.3313 16.465200 11.954000 12.454500
359  2 -0.2920 13.744400  1.490190 13.027800
360  2 -0.3234 15.974300  4.578150 12.120600

