Generated by pymatgen.io.lammps.data.LammpsData

320  atoms

  2  atom types

0.000000 24.637781  xlo xhi
0.000000 17.058433  ylo yhi
0.000000 27.370788  zlo zhi

Masses

1  208.9804
2   78.9600

Atoms

1    1  0.7044 18.088700  6.544270  7.939510
2    1  0.6957 19.594100 14.408300 20.601700
3    1  0.5918  2.156210 15.373200  3.968560
4    1  0.7991 -1.209070  7.834510 17.550100
5    1  0.6454  9.205400 10.765900 10.710000
6    1  0.6292 14.076000  1.605260 13.574400
7    1  0.6876  2.319420 16.905800  0.766564
8    1  0.6804  3.014800  6.720870  9.480100
9    1  0.7452  7.982900  3.897320 15.670200
10   1  0.6785 12.827000 18.003700 22.432000
11   1  0.7136  3.357990  8.860370 15.048300
12   1  0.6936  1.116230  4.743490 18.528000
13   1  0.5614 11.635300 16.611100 19.494700
14   1  0.6374 11.234900  6.317010 22.946500
15   1  0.7428 11.138400 11.848700 15.765900
16   1  0.6203 15.753500 14.328600 20.577800
17   1  0.6673  9.565730  2.658130 23.655300
18   1  0.6060 10.376000  3.311230 19.743700
19   1  0.5114 -0.951318 17.411200 24.085000
20   1  0.6142 -0.947832 18.236600  1.684270
21   1  0.7695 18.111200 11.238900 18.328500
22   1  0.6195 19.655100  5.433450 14.290000
23   1  0.6385 -1.917520  5.710850  2.748440
24   1  0.6838  9.432100 15.402800 26.705700
25   1  0.7443 13.030000  4.581600 10.181300
26   1  0.6162 20.997100  2.588400 23.428700
27   1  0.6541  8.175440 17.116400 13.026600
28   1  0.2938  3.293190  8.895420 25.451900
29   1  0.5512 -2.488350  3.424920 11.528200
30   1  0.7970  7.283210  8.131760 12.858700
31   1  0.5752 17.632900 17.538000 20.658100
32   1  0.7183 13.506500 12.826100 18.119500
33   1  0.6783 20.892600 17.760000  8.655580
34   1  0.6122 20.186200 16.134200 23.528900
35   1  0.5975  7.909410  9.787750  7.725110
36   1  0.6312 21.566400 10.495400 17.267900
37   1  0.7003  6.916540 14.201000 16.129600
38   1  0.7754  3.181170 15.949000 19.350400
39   1  0.5265  3.481910  1.563530  9.884540
40   1  0.7075 11.984700  7.296020 17.493000
41   1  0.8289 21.393200  1.682860 14.871900
42   1  0.7197  3.435110 15.420900 23.378200
43   1  0.5883 17.312000  7.713260 12.931600
44   1  0.5919 -0.853528  4.794310  6.426480
45   1  0.7581 11.620000  1.981710  7.813100
46   1  0.6696 12.540000  5.312990 26.423400
47   1  0.5688 17.818200  4.365180 11.053100
48   1  0.6098  9.191020  4.783460  5.739850
49   1  0.6381  4.605410  2.111870  2.975800
50   1  0.4164  5.721380  6.802520 21.944100
51   1  0.6624  5.522510 12.652200  4.840440
52   1  0.5199  8.492330  3.251050 10.998900
53   1  0.4507 14.568400 17.693600 17.374800
54   1  0.7657 12.954700 14.196000 22.855300
55   1  0.5633  0.795912 11.585400  5.391350
56   1  0.5274  0.859833 18.603900 11.979400
57   1  0.6748  6.384030  3.646280 26.055700
58   1  0.6341  6.059190  5.738260  1.653690
59   1  0.6446  0.653444 10.125600  1.372830
60   1  0.4662  7.591070 10.576400 20.591100
61   1  0.1280  4.028700  9.778420 21.502300
62   1  0.6168 14.107000  4.202000 21.879700
63   1  0.7434  9.571110 10.288500  3.585320
64   1  0.5014  0.095315  7.501480  7.086470
65   1  0.5053  2.575100  5.184480 26.181600
66   1  0.6492  3.238640 14.772900  9.148740
67   1  0.6183 21.477700  3.480400  5.196310
68   1  0.6755 18.010900 17.606000 17.233800
69   1  0.4508  4.681670 12.004800 19.641800
70   1  0.7310  7.935180 17.661500 17.824300
71   1  0.3657  3.675010  7.462950 19.239500
72   1  0.3655  4.345460  4.399470 11.820600
73   1  0.6663  7.202760 17.640700 24.454100
74   1  0.8422  5.150590  1.888170 20.891200
75   1  0.5528  3.056890 12.577400 24.466900
76   1  0.8108 10.129200  6.824590  8.898060
77   1  0.6320 14.560100  5.956820  7.110200
78   1  0.7038  4.408770 11.176300 12.733300
79   1  0.6896 20.666100 14.338000 10.354200
80   1  0.5311  1.484370  4.828570 14.737600
81   1  0.6776  0.212913  4.167810 22.284900
82   1  0.5659  3.964500 11.221700  8.091780
83   1  0.6242  0.086614 17.208000 20.807700
84   1  0.7343 -1.835640 11.741100 13.548400
85   1  0.6462 18.797900  3.096610  3.419720
86   1  0.8138 20.841600  4.279820 18.073900
87   1  0.7160 13.229200 11.177200 20.676100
88   1  0.7744 18.016800  5.679240 21.555400
89   1  0.8101  1.591670 14.682800 15.155800
90   1  0.6133  7.581930  1.697380  8.127750
91   1  0.8152 -1.924060  6.355270 26.176100
92   1  0.7349 14.011200  5.923300 14.241700
93   1  0.6686 -0.811297 11.918800 21.267000
94   1  0.6854 22.348100  6.935290 10.704400
95   1  0.7657  1.215980  1.450000  5.807170
96   1  0.5110 15.280000 15.817000 14.407300
97   1  0.8476 -0.169841 15.246000 10.789200
98   1  0.7671  0.539220 18.455600 16.661300
99   1  0.3759  6.231050  4.490130  9.726290
100  1  0.7298 -2.355380  8.305950 20.930300
101  1  0.7068 19.340900 13.475800 14.822400
102  1  0.5924  2.651500  1.724840 25.185400
103  1  0.5389  0.177697  9.701800 24.837500
104  1  0.7688  3.458420  9.357110  4.190720
105  1  0.7091 18.818300  7.576750 16.793200
106  1  0.5420 11.759700 17.466700 15.227800
107  1  0.6842  4.946270 16.373000 13.558600
108  1  0.6232 10.315600 13.719200 12.436500
109  1  0.7615 -1.431540 11.740900  9.802240
110  1  0.2854  5.765300  9.524060 18.624900
111  1  0.5456 11.834700  3.901440 16.703000
112  1  0.7959 14.699900  9.315410 16.081100
113  1  0.6031  0.074129  2.734280  9.689150
114  1  0.7644  1.708020  4.718910  2.956860
115  1  0.5890  5.440220 13.545300 10.871100
116  1  0.6820  0.248874 12.979000  0.210679
117  1  0.5024 21.380400  7.413740  6.307040
118  1  0.4292  6.757170  7.872220 24.625900
119  1  0.5762 18.095200 17.904200 11.854600
120  1  0.7997  7.858200 11.908100 25.480000
121  1  0.6334  6.425290 17.427500  3.754120
122  1  0.6871  5.643190 10.742600  1.241380
123  1  0.7623 10.128500  5.798280 13.542700
124  1  0.6619  9.384540 15.661800 22.238300
125  1  0.5393  5.360940  4.475290  6.044720
126  1  0.7307 21.173400 14.365100 17.120400
127  1  0.6062 21.312100 10.269800  4.843950
128  1  0.6661  9.762300 12.625400 19.059600
129  2 -0.4202 21.586700  8.975200 13.708900
130  2 -0.2050  9.768510 13.861300  3.386460
131  2 -0.6865  1.255280 17.149600  9.600490
132  2 -0.0454 14.859700  8.829950 27.424200
133  2 -0.4734 20.384500  9.015440  9.879720
134  2 -0.3320  7.943620 13.732800  8.949480
135  2 -0.6061 19.222900 16.671000 15.034800
136  2  0.0249 15.591700 13.195300  5.795850
137  2 -0.0852 18.081700  8.175780  2.978650
138  2 -0.7463 11.843000  3.378160 13.870800
139  2 -0.0970 15.110000  5.968070  2.208930
140  2 -0.0078 20.316900 14.861500  1.802930
141  2 -0.4466 14.134800 11.820900 15.060100
142  2 -0.3589  9.170420  9.647560 23.569200
143  2 -0.1300 20.371900  9.803670  1.034950
144  2 -0.4237  0.442017 15.901800 18.387400
145  2 -0.7081 20.652800  5.499520  8.310850
146  2 -0.4465 17.604800 12.603800 21.537100
147  2 -0.3414 11.401200  8.832520  4.800510
148  2 -0.4577 19.812800 12.076800 12.443800
149  2  0.1005 16.346900 11.714600  9.844620
150  2 -0.6680  3.037920  1.762130 13.409900
151  2 -0.3980  3.937840  4.798260 17.750700
152  2 -0.5352  7.645520 14.582800 24.366900
153  2 -0.7086  5.776450 11.017300 10.247500
154  2 -0.6099  8.530800 11.825700 16.410900
155  2 -0.4512 20.728700 18.188900  4.805560
156  2 -0.4634  3.251310 13.342300 17.440400
157  2 -0.0988 15.964800  9.410970  5.056150
158  2 -0.7163 12.310500 10.266900 17.773400
159  2 -0.0171 18.892800 12.352200  1.409830
160  2 -0.3472  0.610819 15.606500  6.342910
161  2 -0.5050 -1.379180 12.555700 16.484700
162  2 -0.8347 -1.203800  8.209000  4.064420
163  2 -0.3808 16.861800 14.667800 12.608800
164  2 -0.3696 -2.105640 16.114200 27.519100
165  2 -0.4471  5.143410 15.456900  6.065550
166  2 -0.3160 20.936800 12.151900 22.505800
167  2 -0.5867  3.873140  6.013430  3.628990
168  2 -0.4967  8.863500  6.820200 25.525000
169  2 -0.0318 11.976100 15.211000  8.612270
170  2 -0.0624 12.471500  9.499350  1.797830
171  2 -0.6654  2.079030  3.707480  7.859060
172  2 -0.7126  2.379010 18.215100 22.072700
173  2 -0.6380  6.055430 17.213400  9.954060
174  2 -0.4935 -2.134980  5.423710 22.814800
175  2 -0.0887 19.031700 15.180500  6.351930
176  2 -0.6764 14.792500  6.937700 16.790500
177  2 -0.0672 12.194000 13.916100  2.416400
178  2 -0.5676  2.058620  2.047600 18.911200
179  2 -0.5712  4.320840 16.554300 25.477500
180  2 -0.6296 19.984400 16.553700 18.850600
181  2 -0.7727  4.203740  3.184970  0.130829
182  2 -0.9676 13.322100 14.024800 20.221000
183  2 -0.2205 12.043500 13.546400 26.106900
184  2 -0.6872  5.920010 11.620100 23.450800
185  2  0.0758 18.657400  9.722370 25.442900
186  2 -0.6032  0.030305 12.709800 11.722400
187  2 -0.4790 18.387200 18.221600 23.612300
188  2 -0.5137  8.603430 10.386100  0.093080
189  2 -0.0266 16.092100 10.594500 23.485600
190  2 -0.3765  6.918280  3.017870 18.110800
191  2 -0.0000 15.147000 16.715000  5.912770
192  2 -0.2578  9.652460  6.565110  2.651350
193  2 -0.1735 13.694500 13.683000 11.515300
194  2 -0.6167  0.651365 15.320600 25.489000
195  2 -0.5673  7.523030 10.782200 12.993000
196  2 -0.5697  3.788050  8.033670 12.643800
197  2 -0.7704  7.823350  5.889930  7.878460
198  2 -0.6756 -1.234100  2.731570 25.123000
199  2 -0.0315 16.916400  5.965730  0.827890
200  2 -0.2168 15.494200  0.830104  7.588540
201  2 -0.6815 -2.464230  4.073210 14.051900
202  2 -0.4368  8.176310  4.485760 22.072500
203  2 -0.5145  6.240790  7.739080 16.395100
204  2 -0.6994  7.050210 14.272800 13.287600
205  2 -0.8445  2.366450 18.550200  2.915130
206  2 -0.7151 11.567700 14.455400 17.208400
207  2 -0.0222 17.116500 14.495900  0.176240
208  2 -0.7871 14.418600 17.616000 20.272300
209  2 -0.5935  3.501830  8.875320  1.574500
210  2  0.0311 15.545400 16.201900 26.676900
211  2 -0.5567 18.868400  8.120990 19.449400
212  2 -0.0187 15.329000  9.996540  9.251600
213  2 -0.0101 20.851800 14.161600  6.065780
214  2 -0.3180 13.033700  8.627690  8.225690
215  2 -0.6728 11.584300 16.360300 24.179100
216  2 -0.6896 21.667500 17.988800 11.796900
217  2 -0.6509 22.051400 15.742600 21.533000
218  2 -0.8007 -0.444487  3.654560  3.990070
219  2 -0.7537  7.337280  5.057140 12.702600
220  2 -0.5288  0.594480  7.246040 22.234500
221  2 -0.4473 -0.995950 16.732000 14.489600
222  2 -0.7345 20.942200  6.739370 16.431500
223  2 -0.6661  2.532770 15.192500 12.450000
224  2 -0.0668 16.568300  7.490600 25.031000
225  2 -0.1505 10.502000  4.029710  1.018550
226  2 -0.5495 15.378600 10.784400 19.199600
227  2 -0.4628  3.482810 16.925000 16.077900
228  2  0.0304 17.052500 10.678000  1.335690
229  2  0.0016 18.901500 11.840000 25.928100
230  2 -0.2912 -0.198585  7.462670 13.501800
231  2 -0.2219 19.387100 11.821000  8.025020
232  2 -0.6104 11.797800  7.755610 14.855900
233  2 -0.3008 19.242000  4.807260 24.296100
234  2 -0.5319  6.234530  1.696530 14.663400
235  2 -0.0204 14.323900 11.905900  4.732440
236  2 -0.5900  7.870850  8.185040 10.169900
237  2 -0.0283 10.606800 13.660000  6.573140
238  2 -0.3945 15.655100 15.650000 23.391900
239  2 -0.5606  7.192380  3.339880  2.198780
240  2 -0.7672 20.431800 12.549500 18.828700
241  2 -0.6511 10.650400  5.071830 11.131400
242  2 -0.7221  8.818090  0.935273 21.126400
243  2 -0.4554 -2.140710 15.239400  8.728670
244  2 -0.5877 -0.319970  4.299740  0.797908
245  2 -0.5686 22.324400 15.046300 12.283900
246  2 -0.9290 11.959700  3.571440 23.064600
247  2 -0.3900 -1.854570 12.046200 25.889700
248  2 -0.3280 16.015600  7.540100 22.530000
249  2 -0.4788 11.840600 16.531000 12.076700
250  2 -0.5404  8.819920  1.665500 26.411800
251  2 -0.6243  1.631100 12.769900  8.046480
252  2 -0.4265 -1.963170 18.199000 17.564500
253  2 -0.0089 14.494500 16.505200  2.568820
254  2 -0.6418  0.256584  7.935580 27.129600
255  2 -0.6644 19.793700  5.821630  4.535000
256  2 -0.0224 14.180400 13.131600  1.894630
257  2 -0.0776 10.688200 17.265900  2.356410
258  2 -0.1873 19.922800  6.738510  0.875610
259  2 -0.0018 13.670400 12.609900  8.144030
260  2 -0.6533 -0.671887  9.845200 19.514700
261  2 -0.7688  2.876710 11.914500  3.805780
262  2 -0.3923 11.059900  8.508410 11.082200
263  2 -0.3504 14.832000  8.804970 12.857100
264  2 -0.6011 16.182300  6.522940 10.333700
265  2 -0.8956 10.602400  1.722590 17.447100
266  2 -0.6549 17.337200 13.599800 16.677100
267  2 -0.1581 14.533900 16.316100  9.633670
268  2 -0.1413 18.826100 11.760500  4.262900
269  2  0.0132 12.639200 14.438500  5.543730
270  2 -0.6393  5.734450  3.295150 23.741000
271  2 -0.4086  6.655970 15.091500  1.301570
272  2 -0.0836 18.847000 17.034900  0.261132
273  2 -0.4862 10.172900  7.033690 20.620900
274  2 -0.5342  2.983580 14.541300  1.098610
275  2 -0.5736  3.368530  7.452850  7.050290
276  2  0.0122 16.210700 11.336300 26.268500
277  2 -0.3712 21.944100  8.452900 24.974600
278  2 -0.8185 11.414300  4.483040  8.136480
279  2 -0.6363 18.511900 10.273000 15.656500
280  2 -0.5315 -1.738850 11.839100  7.251900
281  2 -0.5369 19.546700  2.794130 19.882500
282  2 -0.6094  2.339940 13.720100 20.901700
283  2 -0.6015 17.276100  4.194850  7.958400
284  2 -0.5259  6.666150 14.441400 19.070800
285  2 -0.5335  9.356570 18.620300  6.143420
286  2 -0.1661 14.704200  2.232840  4.348850
287  2 -0.1712 13.363100  4.502640  3.743880
288  2 -0.5809  9.115540 12.705200 21.527600
289  2 -0.5377  9.583200  5.935430 17.229900
290  2 -0.7173  2.366010 11.515200 26.768700
291  2 -0.0407 14.191100 18.268200 26.557100
292  2 -0.0527 11.819400 10.528800 27.152200
293  2 -0.6503  5.987380  9.686710  3.686520
294  2 -0.3658 18.004700  4.630810 16.951700
295  2 -0.3828 12.856000 11.726700 23.441900
296  2 -0.4722  2.481420 11.266900 14.583300
297  2 -0.5357  3.215940  5.201640 21.825100
298  2 -0.2766 15.346700  4.330070 25.440800
299  2 -0.0418 16.485400 15.915900  2.971900
300  2 -0.7636 -0.474427  5.305790  9.433740
301  2 -0.6360  4.486390  1.544510  6.255920
302  2 -0.6012 14.928100  3.890560 12.753300
303  2 -0.0458 14.117700  8.832600  4.341990
304  2 -0.4419  0.791841  9.023220 16.244600
305  2 -0.5379  5.442440 16.455600 21.357100
306  2 -0.1833 -2.597300 14.543700  3.278220
307  2 -0.6350 18.048200  3.011860 13.344000
308  2 -0.4765  1.404830  8.767630  9.664110
309  2 -0.4443 16.086100  3.835360 19.888500
310  2 -0.4179  9.615450 17.531400  9.545960
311  2 -0.0090 12.073500 18.325600  1.118900
312  2 -0.1531 18.645400  2.169820 27.197100
313  2 -0.6387 -1.476680  6.254460 19.511800
314  2 -0.0430 16.287800 14.308700  8.203210
315  2 -0.6086  9.349070 15.962500 15.218000
316  2 -0.6300 -1.887090  2.237470  7.553990
317  2 -0.5845 -0.903115  4.337080 16.812100
318  2 -0.5336  8.030780 11.919000  5.704780
319  2 -0.0407 17.516000 11.273500  6.981720
320  2 -0.5306 16.059000  2.272270 15.556300

