Generated by pymatgen.io.lammps.data.LammpsData

7  atoms

2  atom types

0.000000 13.242433  xlo xhi
0.000000 3.952781  ylo yhi
0.000000 3.449415  zlo zhi
12.638732 12.638732 1.930289  xy xz yz

Masses

1  208.9804
2   78.9600

Atoms

1  1  0.000000 0.000000 0.000000
2  1 16.338222 2.495305 1.463070
3  1 22.181675 3.387765 1.986345
4  2  4.992856 0.762549 0.447105
5  2 33.527042 5.120521 3.002310
6  2 11.130865 1.699996 0.996757
7  2 27.389032 4.183074 2.452658

