Generated by pymatgen.io.lammps.data.LammpsData

216  atoms

  2  atom types

0.000000 18.096178  xlo xhi
0.000000 18.140645  ylo yhi
0.000000 18.233787  zlo zhi

Masses

1  208.9804
2   78.9600

Atoms

1    1  0.7461  0.244359 18.120900 -0.109017
2    1  0.7407  0.333608 17.755000  6.448610
3    1  0.8032  0.320536 18.072800 12.358200
4    1  0.7506  0.420720  5.845230 -0.352599
5    1  0.7827  0.307871  5.692900  6.528260
6    1  0.7580  0.641512  6.009460 11.964800
7    1  0.7484  0.395083 11.609700  0.489791
8    1  0.8014  0.530619 11.468400  6.285540
9    1  0.7628  0.768571 12.335900 12.444200
10   1  0.6932  6.142860 17.399600 18.367500
11   1  0.8700  6.660820 17.087200  6.449290
12   1  0.7315  6.516190 17.803000 12.493800
13   1  0.8258  6.300120  5.755870  0.471518
14   1  0.6886  6.519100  5.425580  6.439980
15   1  0.9132  6.280290  5.874510 12.607600
16   1  0.7723  6.492730 11.480800  0.254789
17   1  0.8516  6.703030 11.985000  6.545070
18   1  0.7454  6.378980 12.008100 12.468300
19   1  0.7740 12.666500  0.326391 -0.081663
20   1  0.7137 12.074000 17.765500  5.657740
21   1  0.7918 12.819000 18.140600 12.452000
22   1  0.8935 12.580900  5.864680  0.402202
23   1  0.8056 12.603200  5.447790  6.425140
24   1  0.8274 12.374800  5.968080 12.304000
25   1  0.7796 12.203600 11.594600  0.136580
26   1  0.7786 12.825400 11.646700  6.405040
27   1  0.8116 12.617500 11.606500 12.174100
28   1  0.6410 18.190600  2.723210  3.289330
29   1  0.7175  0.637357  2.393300  9.513390
30   1  0.8157  0.596305  3.131940 15.234400
31   1  0.7995  0.557477  8.567780  3.124790
32   1  0.6936  0.746951  8.425630  9.317490
33   1  0.6862  0.536255  9.132100 15.740000
34   1  0.7511  0.387962 14.443200  3.559370
35   1  0.8014  0.531363 14.995400  9.681140
36   1  0.8641  0.563526 15.051500 15.673300
37   1  0.8812  6.483760  2.373310  3.075880
38   1  0.7340  6.549960  2.389590  9.397410
39   1  0.7985  6.973940  2.740360 15.304400
40   1  0.8146  6.217370  8.132600  3.495740
41   1  0.7683  6.852320  9.005510  8.937230
42   1  0.7439  6.654210  8.957240 15.188800
43   1  0.8047  6.226240 14.792700  3.016160
44   1  0.8749  6.156890 14.677200  9.208040
45   1  0.6962  6.972550 14.920500 15.264700
46   1  0.7939 12.186800  2.894610  2.683390
47   1  0.7567 12.627900  2.497760  9.646970
48   1  0.7913 12.109900  2.798120 15.642100
49   1  0.8296 12.335300  8.832490  3.082610
50   1  0.7792 12.829000  8.823840  8.838180
51   1  0.8780 12.877100  8.571380 15.327600
52   1  0.6322 11.955700 14.842100  2.999760
53   1  0.8417 12.791900 14.431100  9.623270
54   1  0.8452 12.690200 14.665700 15.510700
55   1  0.7878  3.492500 17.102300  3.588020
56   1  0.7772  3.943400 18.213400  9.176980
57   1  0.8035  3.433540 18.062400 14.973700
58   1  0.7282  3.371850  5.820280  3.685070
59   1  0.8047  3.688010  5.680720  9.422060
60   1  0.8837  3.394730  5.717770 15.568000
61   1  0.8473  3.357570 11.791000  3.331920
62   1  0.8169  3.900570 11.928300  9.129180
63   1  0.8505  3.534200 11.649700 15.932200
64   1  0.7159 10.029700 17.921100  2.598720
65   1  0.7693  9.778570 17.885500  9.428200
66   1  0.7780  9.966610  0.240752 14.995200
67   1  0.7803  9.726530  5.088010  3.843460
68   1  0.7893  9.333540  5.505840  8.670690
69   1  0.7631  9.359280  6.316110 15.283500
70   1  0.7513  9.449400 12.079000  3.014130
71   1  0.7899  9.943010 11.956600  9.141530
72   1  0.7284  9.581750 12.076200 15.587400
73   1  0.7921 16.100200 17.725200  3.001320
74   1  0.7348 15.713500 17.811900  8.860520
75   1  0.8227 15.350400 17.923400 15.216600
76   1  0.8120 15.952400  5.346130  2.912260
77   1  0.7097 15.598800  5.461300  9.110950
78   1  0.8548 15.600800  5.176650 14.805900
79   1  0.7695 15.504300 11.700800  3.014020
80   1  0.7424 15.716200 11.760000  9.272350
81   1  0.7049 15.847600 11.642000 15.876100
82   1  0.7646  3.835780  2.542120 -0.022426
83   1  0.7726  3.786850  2.852320  6.073840
84   1  0.8147  2.944760  2.945420 12.403000
85   1  0.8739  3.882470  8.820210  0.238960
86   1  0.6561  3.603020  8.963640  6.789440
87   1  0.8582  3.708200  9.558800 12.697300
88   1  0.7872  3.434210 14.942700 18.302600
89   1  0.8689  3.273840 14.561200  6.340810
90   1  0.7783  3.742080 15.290900 12.044400
91   1  0.7749  9.236580  3.250430 -0.056397
92   1  0.7169  9.754110  2.578040  6.590630
93   1  0.7832  9.250150  2.922320 12.308900
94   1  0.8129  9.371510  8.495920  0.348361
95   1  0.8352  9.939230  8.528050  6.433900
96   1  0.8077  9.711610  8.765350 11.924500
97   1  0.7810  9.187180 15.170300  0.221041
98   1  0.6632 10.470300 14.816200  5.884710
99   1  0.7289  9.541180 14.523900 12.705700
100  1  0.6849 15.715200  2.278760  0.602071
101  1  0.8125 15.725800  2.216550  6.081530
102  1  0.7876 15.537200  2.797630 11.997000
103  1  0.6775 15.663400  9.113850 18.080000
104  1  0.8194 15.471600  9.180640  6.000910
105  1  0.6928 16.087300  9.041880 12.292600
106  1  0.8230 15.462500 14.717600 -0.123927
107  1  0.8183 15.982800 14.588600  6.321910
108  1  0.8679 16.080800 14.880500 12.736200
109  2 -0.7832  3.422360 17.821100 17.668500
110  2 -0.7368  3.926120 17.061100  6.478000
111  2 -0.8306  3.136420  0.171528 12.221800
112  2 -0.7275  3.233350  5.769670  0.081529
113  2 -0.8415  3.358610  5.948500  6.478910
114  2 -0.7323  3.583990  5.610340 12.243100
115  2 -0.7644  3.797550 11.830600  0.318961
116  2 -0.8640  3.421330 11.924900  6.510300
117  2 -0.7701  3.462340 12.067300 12.200200
118  2 -0.7722  9.772450  0.039112 -0.249150
119  2 -0.7807  9.402650 17.466400  6.015110
120  2 -0.8036  9.771370 18.114100 12.396700
121  2 -0.8135  9.403990  5.966460 18.544800
122  2 -0.9774  9.830270  5.471990  6.205860
123  2 -0.7470  9.508160  6.152610 12.592400
124  2 -0.8194  9.292950 11.888100  0.159113
125  2 -0.7344  9.940520 11.623300  6.282380
126  2 -0.7894  9.881060 11.831300 12.159600
127  2 -0.8379 15.390300 17.801300  0.272119
128  2 -0.7537 15.662300 17.355900  5.791370
129  2 -0.7914 15.586900 17.511500 12.201400
130  2 -0.6773 15.420300  5.224720 18.209700
131  2 -0.6472 15.239400  5.604180  5.987430
132  2 -0.7666 15.500200  5.714790 12.324200
133  2 -0.9120 15.290600 11.629100  0.055690
134  2 -0.8724 15.883800 11.685500  6.180180
135  2 -0.7612 15.705400 11.939100 12.703700
136  2 -0.6900  3.483690  1.939990  3.561550
137  2 -0.8371  3.810240  2.805290  9.124740
138  2 -0.7657  3.568400  2.655670 15.060800
139  2 -0.7762  3.773910  8.974560  3.204530
140  2 -0.7330  3.963430  8.728520  9.816990
141  2 -0.7682  3.791360  8.751860 15.793100
142  2 -0.8692  3.571720 14.293900  3.001230
143  2 -0.7637  3.391500 14.962100  9.316340
144  2 -0.6777  3.335410 14.409100 15.419500
145  2 -0.8319  9.374980  2.495750  2.967490
146  2 -0.8961  9.168350  2.765930  9.152950
147  2 -0.9024  9.495790  3.212130 15.270000
148  2 -0.6631  9.359390  8.554000  3.270640
149  2 -0.8145  9.713870  8.937250  9.103520
150  2 -0.7679  9.876630  9.057660 15.565600
151  2 -0.8532  9.166040 15.013300  3.267960
152  2 -0.6945 10.202400 14.703600  9.521340
153  2 -0.7666  9.832810 15.193800 15.936500
154  2 -0.7499 14.929000  3.077340  3.530380
155  2 -0.8143 15.236100  2.407390  9.051000
156  2 -0.7348 15.669300  2.588520 14.878100
157  2 -0.7142 15.601700  8.897910  3.035960
158  2 -0.7933 15.855900  8.763350  9.331840
159  2 -0.7702 15.379400  8.094040 15.272000
160  2 -0.6960 15.762300 15.118400  2.978970
161  2 -0.7469 15.654700 14.603600  9.878270
162  2 -0.8233 15.634000 14.829300 15.351000
163  2 -0.8180  0.750372 17.352500  3.472590
164  2 -0.8261  0.929613 17.828200  9.071600
165  2 -0.7488  0.201652 18.343500 15.387100
166  2 -0.7969  0.645121  5.432780  3.174490
167  2 -0.8765  0.642980  5.788600  9.396850
168  2 -0.8233  0.981847  5.934400 15.138400
169  2 -0.8519  0.442220 11.579800  3.115270
170  2 -0.7105  0.816773 11.950200  9.226840
171  2 -0.7981  0.865259 12.049400 16.015800
172  2 -0.7400  6.252700 17.454500  3.281380
173  2 -0.8055  6.839140 17.394100  9.435770
174  2 -0.8082  6.531950 17.852100 15.110600
175  2 -0.7671  6.485740  5.137720  3.754120
176  2 -0.7261  6.814580  5.957060  9.674350
177  2 -0.7605  6.231240  5.954320 15.418200
178  2 -0.6290  6.582080 11.622000  3.914670
179  2 -0.8492  6.456430 12.028100  9.599540
180  2 -0.8439  6.496990 11.741800 15.418700
181  2 -0.7760 12.818500  0.129185  2.862900
182  2 -0.6688 12.696000 17.534400  9.351950
183  2 -0.8609 12.707300 18.113200 15.182400
184  2 -0.6979 12.958700  5.767740  2.990680
185  2 -0.7650 12.336600  5.520870  9.396320
186  2 -0.6670 12.798700  5.930380 15.646400
187  2 -0.8019 12.479300 11.551300  3.292720
188  2 -0.8939 12.856000 11.340500  8.992500
189  2 -0.7086 12.668700 11.880200 15.351300
190  2 -0.7861  0.753181  2.762080 -0.161700
191  2 -0.8027  0.258490  2.869370  6.299540
192  2 -0.8800  0.223313  2.757780 12.229200
193  2 -0.8171  1.200670  8.733430  0.295700
194  2 -0.7801  0.172886  8.668180  5.906390
195  2 -0.7556  1.133500  9.293510 12.854900
196  2 -0.7516 18.477400 14.967800 -0.123315
197  2 -0.8031  0.609062 14.604200  6.675020
198  2 -0.8336  0.630457 15.211200 12.811200
199  2 -0.8426  6.560000  3.006470  0.408361
200  2 -0.7248  6.535030  2.664930  5.940160
201  2 -0.7805  6.764450  3.008890 12.651500
202  2 -0.8499  6.538770  8.147370  0.673317
203  2 -0.7589  6.850890  9.153000  6.247480
204  2 -0.7304  6.326300  8.568300 12.473300
205  2 -0.8218  6.615330 14.592500  0.020684
206  2 -0.7870  6.393120 14.574300  6.489040
207  2 -0.8323  6.439490 14.834700 11.922100
208  2 -0.8407 12.684600  3.134380  0.114382
209  2 -0.6889 12.997300  2.358140  6.545100
210  2 -0.7837 12.737900  3.070130 12.459800
211  2 -0.7701 12.572900  8.613640 18.423200
212  2 -0.8293 12.543800  8.656120  6.104120
213  2 -0.7476 12.459500  8.872810 12.452500
214  2 -0.7242 12.495100 14.558100  0.215154
215  2 -0.7377 13.321900 14.808200  6.718140
216  2 -0.6641 12.535500 14.692200 12.653000

