Generated by pymatgen.io.lammps.data.LammpsData

360  atoms

  2  atom types

0.000000 16.872888  xlo xhi
0.000000 21.930934  ylo yhi
0.000000 29.928687  zlo zhi

Masses

1  208.9804
2   78.9600

Atoms

1    1  0.7340  1.930570 13.444700 20.813500
2    1  0.7329  4.122920 16.862400 20.885300
3    1  0.7342  1.865560  6.016990 21.107100
4    1  0.7381  4.169050  9.809000 20.950300
5    1  0.7093  6.230960 13.220500 21.018700
6    1  0.7345  8.271260 16.929400 21.243700
7    1  0.7981  2.027620 20.719400 21.111500
8    1  0.7609  4.125270  2.248860 21.134200
9    1  0.7396  6.220880  6.051940 21.100700
10   1  0.7670  8.605480  9.798440 20.958700
11   1  0.7542 10.577300 13.145400 20.968100
12   1  0.7851 12.570200 16.860500 21.163200
13   1  0.7272  6.195020 20.751500 21.266800
14   1  0.7611  8.456570  2.461040 21.105100
15   1  0.7899 10.485800  6.087360 21.000000
16   1  0.7824 12.635800  9.582260 21.225500
17   1  0.7583 14.763100 13.414800 21.014200
18   1  0.7636 16.741000 16.897800 21.009800
19   1  0.7299 10.270200 20.685100 21.136200
20   1  0.7553 12.468300  2.260980 21.033900
21   1  0.7706 14.790300  6.098930 21.119200
22   1  0.7248 16.925600  9.811430 20.964800
23   1  0.7457 14.821200 20.653400 21.094300
24   1  0.7670 -0.064051  2.229110 21.055700
25   1  0.7758  1.906080 13.182900 28.715100
26   1  0.7546  4.301950 16.948600 28.857600
27   1  0.7302  2.098440  6.069910 28.695600
28   1  0.7470  4.097020  9.748370 28.838200
29   1  0.7566  6.124560 13.379500 28.646400
30   1  0.7814  8.349890 16.820300 28.780000
31   1  0.7468  2.322740 20.645000 28.681500
32   1  0.7491  4.005910  2.357450 28.652900
33   1  0.7380  6.146170  5.993900 28.676900
34   1  0.7363  8.392360  9.679170 28.599800
35   1  0.7410 10.478800 13.334800 28.637400
36   1  0.7675 12.377600 16.816600 28.623500
37   1  0.7632  6.311550 20.571400 28.508200
38   1  0.7544  8.422610  2.327930 28.696200
39   1  0.7676 10.517200  6.071510 28.633200
40   1  0.7670 12.530200  9.526340 28.693700
41   1  0.7306 14.739500 13.196900 28.617600
42   1  0.7619  0.071963 16.938500 28.603900
43   1  0.7619 10.458500 20.668900 28.568000
44   1  0.7700 12.573400  2.193070 28.662500
45   1  0.7667 14.717500  6.097620 28.755700
46   1  0.7683 16.605400  9.624900 28.701700
47   1  0.7801 14.697000 20.566400 28.681000
48   1  0.7587 -0.268294  2.335510 28.662100
49   1  0.7922  2.135440 15.734100  2.061880
50   1  0.7966  4.110990 19.428000  2.139740
51   1  0.8140  2.108570  8.437420  2.236140
52   1  0.8092  4.135290 11.992500  2.153840
53   1  0.7930  6.215810 15.677400  2.274790
54   1  0.8097  8.361710 19.409200  1.983420
55   1  0.7749  2.095460  1.061190  2.161760
56   1  0.7708  4.189800  4.763610  2.205080
57   1  0.7917  6.321040  8.379380  2.148590
58   1  0.7975  8.445350 12.130100  2.119830
59   1  0.8006 10.545100 15.728500  2.241460
60   1  0.8055 12.623500 19.258200  2.051040
61   1  0.7927  6.312760  1.125300  2.198460
62   1  0.7859  8.405010  4.649330  2.114120
63   1  0.7966 10.511000  8.394950  2.092600
64   1  0.8015 12.536800 12.092300  2.101440
65   1  0.7916 14.669100 15.743400  2.069310
66   1  0.7910  0.159544 19.331900  2.099530
67   1  0.7706 10.559900  1.127930  2.082780
68   1  0.8115 12.604400  4.945430  2.233040
69   1  0.8006 14.728300  8.375140  2.223810
70   1  0.7976 16.866600 12.140800  2.182660
71   1  0.7832 14.766400  1.118520  2.055590
72   1  0.7856 16.763000  4.768750  2.190180
73   1  0.7940  2.037160 15.884900  8.215420
74   1  0.7744  4.146270 19.378200  8.347000
75   1  0.7815  2.125380  8.523110  8.429250
76   1  0.7813  4.091730 12.016400  8.275130
77   1  0.7751  6.280160 15.815500  8.297000
78   1  0.7846  8.398640 19.357000  8.131870
79   1  0.7969  2.091300  1.126740  8.188250
80   1  0.7759  4.198260  4.654890  8.227430
81   1  0.7736  6.350160  8.309950  8.286480
82   1  0.7891  8.319960 12.093000  8.307170
83   1  0.7860 10.500100 15.864100  8.164400
84   1  0.7798 12.441700 19.406100  8.202920
85   1  0.7849  6.283140  1.177430  8.267680
86   1  0.7654  8.505650  4.775510  8.321060
87   1  0.7735 10.543300  8.437630  8.325040
88   1  0.7898 12.568600 12.151400  8.303580
89   1  0.7824 14.662100 15.638000  8.217590
90   1  0.7846 -0.157682 19.397800  8.141470
91   1  0.7729 10.521200  1.049280  8.236730
92   1  0.7645 12.524800  4.741340  8.271360
93   1  0.7970 14.805900  8.451750  8.175480
94   1  0.7819  0.014333 12.213700  8.231440
95   1  0.7758 14.688800  1.077620  8.277870
96   1  0.7888 -0.010991  4.759680  8.211920
97   1  0.7672 16.839400 14.616000 11.692300
98   1  0.7759  2.018330 18.304300 11.569000
99   1  0.7901 16.859500  7.317720 11.581000
100  1  0.7857  2.084440 10.836400 11.681700
101  1  0.7852  4.170880 14.531700 11.566400
102  1  0.7732  6.243400 18.221600 11.640100
103  1  0.7806 16.819500 21.850300 11.558800
104  1  0.7701  2.011620  3.497930 11.659100
105  1  0.7916  4.215990  7.213020 11.659200
106  1  0.7809  6.265520 11.025800 11.718000
107  1  0.7826  8.328060 14.574100 11.521100
108  1  0.7900 10.463600 18.290600 11.774500
109  1  0.7740  4.143020 -0.074796 11.622900
110  1  0.7917  6.186120  3.568940 11.711000
111  1  0.8060  8.336190  7.274610 11.775400
112  1  0.7923 10.331000 10.845500 11.683200
113  1  0.7831 12.622400 14.527500 11.685100
114  1  0.8086 14.727300 18.256500 11.643500
115  1  0.8128  8.330920 -0.157898 11.810800
116  1  0.7982 10.411100  3.535040 11.701800
117  1  0.7904 12.587300  7.243510 11.516700
118  1  0.8010 14.688600 10.858500 11.508900
119  1  0.7918 12.573700 21.850100 11.489200
120  1  0.7533 14.655800  3.659920 11.497000
121  1  0.8049 -0.151116 14.571900 17.602900
122  1  0.8270  2.021100 18.259000 17.682100
123  1  0.8076 -0.100645  7.208380 17.722200
124  1  0.7955  2.033970 10.926000 17.512500
125  1  0.8131  4.225140 14.583300 17.650400
126  1  0.8125  6.340990 18.229800 17.775500
127  1  0.7971 16.753200 -0.105135 17.683300
128  1  0.7991  2.054780  3.478400 17.763400
129  1  0.8012  4.122550  7.179110 17.756100
130  1  0.8106  6.269930 10.867900 17.644600
131  1  0.7994  8.392650 14.643200 17.708900
132  1  0.8177 10.448600 18.123900 17.810900
133  1  0.8162  4.057560 21.838900 17.731300
134  1  0.7938  6.234550  3.562730 17.788400
135  1  0.7969  8.459650  7.240740 17.573800
136  1  0.8040 10.479700 10.936700 17.666300
137  1  0.7828 12.708500 14.434500 17.689500
138  1  0.7961 14.737300 18.103000 17.772300
139  1  0.8112  8.352210 -0.254822 17.782300
140  1  0.7744 10.441400  3.559520 17.647200
141  1  0.8138 12.573000  7.318250 17.669300
142  1  0.8059 14.748200 10.849400 17.399400
143  1  0.7788 12.589200 21.862100 17.782700
144  1  0.8088 14.591700  3.497030 17.710400
145  2 -0.9001 -0.019312 14.542800  0.360115
146  2 -0.9252  2.101970 18.191200  0.487152
147  2 -0.8881 16.767200  7.218760  0.594418
148  2 -0.8964  1.906460 10.901000  0.481961
149  2 -0.8977  4.140870 14.392900  0.491803
150  2 -0.8919  6.339290 18.156700  0.508389
151  2 -0.8805 -0.006319 21.824300  0.370866
152  2 -0.8797  1.935430  3.537750  0.370713
153  2 -0.9087  4.098590  7.327040  0.553450
154  2 -0.8875  6.143210 10.864500  0.544591
155  2 -0.8936  8.288320 14.437400  0.604662
156  2 -0.8842 10.377800 18.109300  0.437164
157  2 -0.8976  4.268780 -0.053465  0.457953
158  2 -0.8810  6.231730  3.538920  0.411446
159  2 -0.8794  8.346410  7.172100  0.493976
160  2 -0.9039 10.503700 10.864800  0.480933
161  2 -0.9051 12.586200 14.543600  0.415098
162  2 -0.8609 14.663800 18.177500  0.341664
163  2 -0.9048  8.443580 21.762800  0.314494
164  2 -0.8785 10.549100  3.569200  0.426108
165  2 -0.9144 12.629800  7.210860  0.520800
166  2 -0.8830 14.650900 10.813700  0.525396
167  2 -0.8927 12.696700 -0.253527  0.384502
168  2 -0.8862 14.567900  3.584700  0.388645
169  2 -0.3087  2.006320 15.955000 26.933300
170  2 -0.3611  4.197190 19.323600 27.013200
171  2 -0.2635  2.124580  8.499530 26.743800
172  2 -0.3637  4.082870 12.168600 27.079200
173  2 -0.3647  6.302270 15.894300 27.061400
174  2 -0.3102  8.018560 19.322900 26.761700
175  2 -0.2880  1.960720  1.220940 26.732700
176  2 -0.3140  4.106550  4.834270 26.772900
177  2 -0.2776  5.980890  8.504510 26.721200
178  2 -0.2828  8.317720 11.775100 26.673000
179  2 -0.4258 10.320300 15.679500 27.146300
180  2 -0.3230 12.625900 19.425800 26.829000
181  2 -0.2814  6.087210  1.265570 26.670000
182  2 -0.3577  8.287810  4.748480 27.083600
183  2 -0.4073 10.525300  8.491920 27.092500
184  2 -0.2827 12.441700 12.004800 26.686600
185  2 -0.2905 14.537100 15.672800 26.691800
186  2 -0.2874 16.973400 19.402000 26.796400
187  2 -0.3766 10.648500  1.027990 26.962000
188  2 -0.2763 12.620300  4.690990 26.792100
189  2 -0.4094 14.709100  8.323990 27.123600
190  2 -0.3627 -0.111658 11.912100 26.965700
191  2 -0.3473 14.734300  1.156860 26.913900
192  2 -0.2962  0.013964  4.975400 26.812700
193  2 -0.3763 17.002400 14.517000 22.650000
194  2 -0.2620  2.166910 17.993200 22.910500
195  2 -0.3086 16.947200  7.360780 23.013700
196  2 -0.2679  1.936410 10.893700 22.965900
197  2 -0.3298  3.979130 14.698200 22.754100
198  2 -0.2473  6.118260 18.273900 23.270500
199  2 -0.3596  0.072451 21.866000 22.821000
200  2 -0.3104  2.038900  3.341690 22.930000
201  2 -0.2675  4.004020  7.562240 23.041400
202  2 -0.3085  6.213830 10.762700 22.871200
203  2 -0.2843  8.420880 14.369800 23.024500
204  2 -0.3085 10.324300 18.064600 23.022700
205  2 -0.3388  3.963370 21.999300 22.971400
206  2 -0.2883  6.424440  3.564300 23.079700
207  2 -0.3251  8.424510  7.295550 22.797100
208  2 -0.3601 10.479000 10.970300 22.771100
209  2 -0.3647 12.479500 14.440100 22.727200
210  2 -0.3496 14.868200 18.227900 22.817100
211  2 -0.3126  8.217520 21.904500 23.144100
212  2 -0.3822 10.481900  3.400340 22.624300
213  2 -0.3885 12.558500  7.161450 22.648600
214  2 -0.2759 14.820300 11.004100 23.066000
215  2 -0.2931 12.405000  0.065683 23.032900
216  2 -0.2963 14.825000  3.798660 22.894500
217  2 -0.8690  2.047350 13.328000  9.898770
218  2 -0.8914  4.114290 16.994700  9.899310
219  2 -0.8587  2.009940  5.991080  9.852530
220  2 -0.8871  4.190770  9.555010  9.995220
221  2 -0.8896  6.236010 13.341900  9.853290
222  2 -0.8854  8.423650 17.055700  9.929080
223  2 -0.8875  2.081740 20.652000  9.876660
224  2 -0.8887  4.109640  2.367030  9.951510
225  2 -0.8727  6.273400  5.967430 10.063300
226  2 -0.8806  8.398590  9.646840 10.014300
227  2 -0.8582 10.344300 13.303600  9.923920
228  2 -0.8496 12.675300 17.059300  9.979830
229  2 -0.8659  6.324010 20.718700 10.023900
230  2 -0.8548  8.369120  2.256010 10.036800
231  2 -0.8825 10.394200  5.914770 10.102600
232  2 -0.8692 12.618200  9.668200  9.917530
233  2 -0.8835 14.675800 13.359200  9.895610
234  2 -0.8718 16.838800 17.063600  9.879420
235  2 -0.8817 10.401300 20.592900  9.904450
236  2 -0.9004 12.609200  2.269840  9.959660
237  2 -0.8776 14.698300  6.192620  9.821930
238  2 -0.8815 -0.077431  9.737000  9.963400
239  2 -0.8800 14.670300 20.571100  9.945900
240  2 -0.8854 16.859900  2.266510  9.792350
241  2 -0.3279 16.961300 14.413700  6.376540
242  2 -0.3485  2.051040 18.271700  6.506720
243  2 -0.3440 16.902600  7.203880  6.582030
244  2 -0.3544  2.149360 10.955300  6.525650
245  2 -0.3354  4.239620 14.569000  6.612940
246  2 -0.3363  6.296670 18.241900  6.415770
247  2 -0.3394 -0.116933 -0.063473  6.436140
248  2 -0.3210  2.030780  3.564010  6.364130
249  2 -0.3220  4.195810  7.158740  6.511060
250  2 -0.3088  6.339140 10.760200  6.404190
251  2 -0.3340  8.441260 14.480100  6.492570
252  2 -0.3561 10.503200 18.088200  6.415840
253  2 -0.3434  4.246410  0.016745  6.539640
254  2 -0.3434  6.309000  3.547010  6.450670
255  2 -0.3544  8.470310  7.185790  6.583030
256  2 -0.3358 10.583000 10.854900  6.595210
257  2 -0.3915 12.581300 14.639800  6.666590
258  2 -0.3073 14.625300 18.070100  6.331950
259  2 -0.3307  8.367480 21.792400  6.431720
260  2 -0.3554 10.708000  3.582920  6.523780
261  2 -0.3306 12.531200  7.082480  6.470350
262  2 -0.3298 14.764200 10.921600  6.436400
263  2 -0.3571 12.553300 21.645600  6.479050
264  2 -0.3203 14.628300  3.524610  6.452290
265  2 -0.3318  2.168190 13.323600  3.904480
266  2 -0.3393  3.997290 16.822800  3.942340
267  2 -0.3205  1.983920  6.053920  3.974230
268  2 -0.3386  4.079940  9.527980  3.956800
269  2 -0.3160  6.173110 13.333200  4.021840
270  2 -0.3231  8.480640 16.983000  3.952780
271  2 -0.3696  2.284690 20.608800  3.865440
272  2 -0.3547  4.213430  2.400650  3.894520
273  2 -0.3216  6.326990  5.972430  4.011050
274  2 -0.3104  8.512230  9.653300  3.971580
275  2 -0.3449 10.578500 13.222100  3.901540
276  2 -0.3549 12.563500 16.915500  3.845530
277  2 -0.3353  6.251430 20.639800  3.845090
278  2 -0.3435  8.467320  2.372020  3.959460
279  2 -0.3439 10.530600  6.006940  3.874320
280  2 -0.3135 12.519400  9.656260  4.000030
281  2 -0.3399 14.745000 13.336500  3.870950
282  2 -0.3354 -0.022798 16.958900  3.863250
283  2 -0.3122 10.489900 20.460100  3.901330
284  2 -0.3415 12.604400  2.299900  3.796430
285  2 -0.3435 14.780800  6.018830  4.010170
286  2 -0.3176  0.054479  9.618460  4.028400
287  2 -0.3281 14.856000 20.490000  3.797350
288  2 -0.3283 16.734300  2.402540  3.970300
289  2 -0.8955  1.934030 15.818100 19.166700
290  2 -0.8818  4.018490 19.424200 19.504600
291  2 -0.9008  2.061190  8.474720 19.384500
292  2 -0.9120  4.170610 12.088300 19.279600
293  2 -0.9220  6.271360 15.770700 19.300600
294  2 -0.9120  8.285850 19.406700 19.509900
295  2 -0.9141  2.040460  1.064120 19.461700
296  2 -0.8878  4.124410  4.775390 19.522900
297  2 -0.8585  6.396030  8.481260 19.307900
298  2 -0.9164  8.475620 12.058600 19.333400
299  2 -0.8766 10.461300 15.821700 19.448600
300  2 -0.8528 12.596900 19.283800 19.517900
301  2 -0.8809  6.190650  1.149090 19.431700
302  2 -0.8849  8.405730  4.906920 19.378500
303  2 -0.8963 10.661600  8.512390 19.405300
304  2 -0.8796 12.698400 11.945000 19.333300
305  2 -0.9258 14.661400 15.750900 19.406000
306  2 -0.8953  0.063725 19.462000 19.404700
307  2 -0.9146 10.302100  1.145350 19.411700
308  2 -0.8574 12.625600  4.898920 19.379100
309  2 -0.8755 14.754300  8.378120 19.301400
310  2 -0.9034 -0.136048 12.170100 19.259900
311  2 -0.9266 14.592800  1.112010 19.439700
312  2 -0.8841 16.822400  4.683780 19.434900
313  2 -0.3695  2.158180 13.334200 15.977600
314  2 -0.3417  4.231670 17.034600 16.071900
315  2 -0.3463  2.007460  6.111070 16.043600
316  2 -0.3373  4.193030  9.572660 15.961400
317  2 -0.3266  6.357670 13.403000 15.922900
318  2 -0.3536  8.466080 17.154500 16.070000
319  2 -0.3442  2.077690 20.663100 15.942800
320  2 -0.3719  3.965200  2.159750 16.118100
321  2 -0.3525  6.127630  6.004120 16.044500
322  2 -0.3607  8.378360  9.738870 15.960400
323  2 -0.3327 10.469100 13.279600 15.890800
324  2 -0.3417 12.634500 16.910500 16.053000
325  2 -0.3371  6.318680 20.519500 16.039700
326  2 -0.3408  8.224560  2.353790 16.011600
327  2 -0.3476 10.489900  5.934330 15.856900
328  2 -0.3333 12.493400  9.656610 15.800300
329  2 -0.3837 14.678100 13.415200 15.901200
330  2 -0.3363 -0.083140 17.073200 15.880600
331  2 -0.3578 10.304500 20.484100 16.124500
332  2 -0.3355 12.683900  2.284520 15.899400
333  2 -0.3426 14.769000  6.070990 16.053400
334  2 -0.3367 -0.067094  9.640840 15.800300
335  2 -0.3554 14.622000 20.577300 16.124800
336  2 -0.3499 16.538500  2.365380 16.051000
337  2 -0.3556  2.155470 15.968800 13.294500
338  2 -0.3192  4.252440 19.422000 13.480200
339  2 -0.3815  2.067090  8.478050 13.237500
340  2 -0.3849  4.191290 12.111700 13.287100
341  2 -0.3566  6.340350 15.880000 13.275900
342  2 -0.3335  8.341990 19.467600 13.507100
343  2 -0.3472  1.967750  1.124160 13.401700
344  2 -0.3588  4.111580  4.644530 13.378400
345  2 -0.3306  6.232430  8.463250 13.474600
346  2 -0.3611  8.274930 12.115500 13.361500
347  2 -0.3462 10.467900 15.762100 13.330200
348  2 -0.3409 12.657400 19.586400 13.334000
349  2 -0.3405  6.209050  1.074160 13.436300
350  2 -0.3415  8.313590  4.831740 13.440500
351  2 -0.3696 10.443400  8.410350 13.299500
352  2 -0.3504 12.626000 12.079900 13.305200
353  2 -0.3556 14.697200 15.879900 13.347500
354  2 -0.3431 -0.087566 19.559500 13.356900
355  2 -0.3483 10.423200  1.062620 13.391900
356  2 -0.3415 12.490000  4.829660 13.304700
357  2 -0.3330 14.733500  8.540830 13.299700
358  2 -0.3435 -0.168407 12.020900 13.374900
359  2 -0.3104 14.638600  1.052610 13.315900
360  2 -0.3439 -0.313227  4.836750 13.300500

