Generated by pymatgen.io.lammps.data.LammpsData

216  atoms

  2  atom types

0.000000 18.096178  xlo xhi
0.000000 18.140645  ylo yhi
0.000000 18.233787  zlo zhi

Masses

1  208.9804
2   78.9600

Atoms

1    1  0.7928 18.899400 18.045900  0.142849
2    1  0.7532  0.697037 17.995600  6.225110
3    1  0.7975  0.986683 17.894700 12.533200
4    1  0.8002  0.701086  5.918090 18.224800
5    1  0.8277  0.739094  5.787700  6.153260
6    1  0.7664  0.608477  5.643780 12.258500
7    1  0.7784  0.522555 11.693400 18.252700
8    1  0.8499  1.120980 11.466400  6.056850
9    1  0.7486  0.661250 12.010100 12.646400
10   1  0.7587  6.332400 17.496400  0.110337
11   1  0.7569  7.029000 17.524200  6.193750
12   1  0.7448  6.635780 17.991100 12.470100
13   1  0.7363  6.672690  5.957350  0.317358
14   1  0.7735  6.913020  5.610440  6.362120
15   1  0.7949  6.408190  5.586150 12.205100
16   1  0.7624  6.868820 11.827400  0.581003
17   1  0.8009  6.425280 12.056800  6.902150
18   1  0.8155  6.194260 11.792600 12.032100
19   1  0.7633 12.305700 17.881900  0.475085
20   1  0.7992 12.720200 17.754300  6.209240
21   1  0.8090 12.383900 18.156200 11.893500
22   1  0.8705 13.066300  5.805940  0.165079
23   1  0.6721 13.100900  5.983480  6.406720
24   1  0.7863 12.722600  5.938120 12.787400
25   1  0.7634 12.341200 11.135000 -0.063607
26   1  0.8042 12.662600 11.901000  5.812450
27   1  0.7770 12.750600 11.745900 11.988900
28   1  0.8290  0.519795  2.544950  3.385430
29   1  0.7974  0.088080  2.724610  9.298300
30   1  0.7413  0.494423  3.087660 15.850000
31   1  0.8100  0.960339  8.453700  3.436450
32   1  0.8016  0.980128  8.743570  9.377770
33   1  0.8420  0.860892  8.311300 15.477300
34   1  0.7747  0.751314 14.910500  3.200310
35   1  0.7557  0.288724 14.806000  9.597960
36   1  0.7678  0.705792 14.558100 15.680400
37   1  0.7648  6.172780  2.516520  3.593510
38   1  0.7299  6.459450  2.461030  9.552700
39   1  0.8095  6.380980  1.982070 15.605000
40   1  0.7822  7.057390  8.756130  3.342490
41   1  0.8157  6.589720  8.511860  9.023570
42   1  0.8248  6.822830  8.933470 15.230400
43   1  0.8120  6.576340 14.847800  3.190560
44   1  0.7696  6.646400 14.980800  9.334170
45   1  0.7718  6.391890 14.560400 15.060400
46   1  0.7569 12.889700  2.556300  2.814620
47   1  0.8299 12.284300  2.995070  9.181380
48   1  0.7807 12.197600  2.467220 15.012300
49   1  0.7704 12.800500  9.105170  3.106660
50   1  0.8047 12.279000  8.636390  9.270600
51   1  0.7131 12.751100  9.189320 15.667500
52   1  0.7577 12.196300 15.330000  3.465550
53   1  0.7690 12.611700 14.718300  9.349500
54   1  0.8195 12.131000 14.759600 15.023900
55   1  0.7527  3.353300 17.766300  3.938990
56   1  0.8557  3.219080 17.840900  9.286230
57   1  0.7809  3.779760 17.476000 15.446600
58   1  0.8370  3.687580  5.929010  3.220900
59   1  0.7575  3.545970  5.781400  9.048720
60   1  0.7963  3.591210  5.604270 16.014700
61   1  0.8553  3.856180 11.835700  2.852880
62   1  0.7880  3.694420 11.896600  9.044180
63   1  0.7982  3.518370 11.898700 15.872400
64   1  0.6414  9.554540 17.746300  3.447540
65   1  0.7366  9.153140 17.761100  9.547050
66   1  0.8506  9.252760 17.489700 15.169100
67   1  0.8702  9.948450  5.367570  3.489840
68   1  0.7482  9.377010  5.518420  9.507180
69   1  0.7438  9.969710  5.726330 15.736900
70   1  0.8245  9.820870 11.716500  3.034740
71   1  0.8462  9.739180 11.585700  9.083190
72   1  0.7649  9.649910 12.012500 15.020200
73   1  0.8039 15.960700 17.769700  2.887450
74   1  0.7918 15.595400 17.251300  9.579980
75   1  0.7252 16.015300 18.254700 15.360200
76   1  0.7827 16.036200  5.452420  3.284530
77   1  0.7322 15.760700  5.624280  9.206720
78   1  0.8040 15.441000  5.730710 15.112100
79   1  0.7289 15.767000 11.948600  3.223100
80   1  0.7804 16.187200 11.528000  9.486960
81   1  0.7636 15.800600 12.150200 15.542400
82   1  0.8006  3.640560  2.398210  0.492815
83   1  0.7919  3.443800  2.954910  6.369430
84   1  0.8311  3.331640  2.729850 12.349400
85   1  0.8516  3.103430  9.014960 -0.010813
86   1  0.8477  3.731720  8.292390  5.819380
87   1  0.7399  3.521230  8.684100 12.343700
88   1  0.7462  3.918870 14.898400 -0.175652
89   1  0.7003  4.118460 14.780000  6.084350
90   1  0.8189  3.938190 14.858500 12.188100
91   1  0.7959  9.925060  2.384020 18.778100
92   1  0.8653  9.345950  2.646690  6.209560
93   1  0.7586  9.447660  2.534620 11.863700
94   1  0.7365  9.371630  8.819680 -0.217472
95   1  0.7401  9.812880  8.895600  6.443420
96   1  0.7881  9.479640  8.665420 12.419500
97   1  0.8021  9.748880 14.782300  0.280538
98   1  0.7989  9.415180 14.929500  6.016390
99   1  0.7936  9.544470 15.052600 11.921800
100  1  0.7915 15.451500  2.563650  0.020669
101  1  0.7884 15.963600  2.425090  6.143250
102  1  0.7169 15.879800  2.782140 12.473300
103  1  0.8395 15.625300  8.390980  0.484000
104  1  0.7640 15.976600  8.467000  5.838400
105  1  0.7552 15.759100  9.154410 12.587800
106  1  0.8377 15.674800 14.549700  0.391435
107  1  0.7372 15.792800 14.722700  6.297560
108  1  0.7161 15.419000 15.033900 12.959400
109  2 -0.7811  3.407930 17.886400  0.641028
110  2 -0.8214  3.539690 17.826000  6.646330
111  2 -0.8001  3.670710 17.699400 12.350200
112  2 -0.7991  3.582230  6.175200  0.312029
113  2 -0.8767  3.775600  5.774360  6.098460
114  2 -0.7540  3.576410  5.520370 12.313600
115  2 -0.8612  3.602850 11.880800  0.200530
116  2 -0.7347  3.726220 11.157500  5.778130
117  2 -0.7727  3.450420 11.940100 12.418200
118  2 -0.8229  9.707670 17.870300  0.172741
119  2 -0.8003  9.767020 17.866400  6.802270
120  2 -0.8969  9.708380 17.860800 12.494300
121  2 -0.6840  9.995600  5.377790  0.518334
122  2 -0.7796  9.705260  5.318250  6.156380
123  2 -0.7282  9.698460  5.286700 12.518600
124  2 -0.8511  9.742180 11.759000  0.334692
125  2 -0.7290  9.884270 11.825700  6.315650
126  2 -0.7013  9.739970 11.616400 12.211800
127  2 -0.7068 15.241600 17.427400  0.212359
128  2 -0.7482 15.940200 17.571100  6.553790
129  2 -0.7839 15.582800 18.017500 12.163400
130  2 -0.7691 15.896400  5.752890 -0.172836
131  2 -0.8413 16.062900  5.280150  5.904690
132  2 -0.7818 15.730100  6.234350 12.324600
133  2 -0.7682 15.490800 11.694500  0.426029
134  2 -0.6659 15.859100 11.249100  6.398870
135  2 -0.8287 15.892000 11.996300 12.560800
136  2 -0.7905  3.351820  3.130850  3.242340
137  2 -0.7222  3.104800  2.586190  9.436930
138  2 -0.7689  3.645010  2.584510 15.867100
139  2 -0.7781  3.725640  8.715540  2.877360
140  2 -0.7714  3.678830  9.105090  9.113530
141  2 -0.7768  3.577550  8.495790 15.783500
142  2 -0.7840  3.735290 14.706700  3.017160
143  2 -0.7758  3.624380 14.788800  9.389750
144  2 -0.8934  3.481050 14.768000 15.313600
145  2 -0.8229 10.109200  2.682690  3.065960
146  2 -0.8442  9.474810  2.793900  9.054250
147  2 -0.6807  9.301300  2.314950 15.369900
148  2 -0.7173  9.773800  8.305240  3.277280
149  2 -0.8182  9.431620  8.586580  9.517090
150  2 -0.8689  9.704750  9.060000 15.420100
151  2 -0.8300  9.573520 14.448500  3.048430
152  2 -0.7795  9.494920 14.754400  8.973240
153  2 -0.8251  9.382070 14.741600 14.707400
154  2 -0.8522 15.883500  2.476550  3.020770
155  2 -0.7270 15.430900  2.798550  8.945080
156  2 -0.8298 15.369100  2.821350 15.312200
157  2 -0.8136 16.337300  8.623240  3.201140
158  2 -0.6755 16.108700  8.659560  8.880690
159  2 -0.6916 15.778800  8.835760 15.841600
160  2 -0.7993 16.056700 15.129400  3.369330
161  2 -0.7963 15.568300 14.271600  9.425410
162  2 -0.7336 15.730800 14.974700 15.889700
163  2 -0.8619  0.744824 17.709700  3.236240
164  2 -0.7523  0.454434 17.962500  9.338170
165  2 -0.7928  0.865771 18.029800 15.703100
166  2 -0.7947  0.606398  5.550950  3.303610
167  2 -0.8107  0.760883  5.704580  8.939810
168  2 -0.8440  0.501390  5.666480 15.300800
169  2 -0.7393  0.702208 11.697300  3.196880
170  2 -0.7358  1.141480 11.537800  9.021680
171  2 -0.8254  0.626343 11.483300 15.484200
172  2 -0.8314  6.495390 17.672800  3.563540
173  2 -0.8554  6.522550 17.904700  9.283510
174  2 -0.9339  6.473990 17.502800 15.272100
175  2 -0.7513  6.575570  5.950660  3.283070
176  2 -0.8673  6.461480  5.792660  9.288160
177  2 -0.6513  6.555760  5.677030 15.424800
178  2 -0.7424  6.558940 11.821700  3.460540
179  2 -0.8325  6.810280 11.640700  9.359880
180  2 -0.7602  6.433930 11.643000 15.347300
181  2 -0.8798 12.793600 17.923000  3.407540
182  2 -0.7065 12.910000 18.167400  9.171850
183  2 -0.6638 12.263100 17.507700 15.051800
184  2 -0.6981 12.699400  6.209710  2.911840
185  2 -0.7612 12.611300  6.065020  9.825620
186  2 -0.8253 12.580100  5.915490 15.541100
187  2 -0.8036 12.461500 11.798300  2.954130
188  2 -0.7059 12.462400 11.639200  8.919790
189  2 -0.8132 12.868600 12.074100 14.972400
190  2 -0.7746  0.442563  2.936660  0.601485
191  2 -0.8172  0.723347  2.779620  6.506060
192  2 -0.8327  0.661904  2.797500 12.637800
193  2 -0.7876  0.347539  8.790770  0.301427
194  2 -0.7856  0.970507  8.728640  6.328890
195  2 -0.7838  0.752538  8.675970 12.755400
196  2 -0.7577  0.781406 14.784300 18.344800
197  2 -0.7009  0.704026 14.440500  6.816680
198  2 -0.7581  0.589029 15.205500 12.600500
199  2 -0.7318  6.476190  2.086470  0.488008
200  2 -0.8219  6.662040  2.713050  6.131370
201  2 -0.7921  6.260810  2.650310 12.546700
202  2 -0.7539  6.537180  8.795150 -0.248505
203  2 -0.7631  6.645900  8.857250  6.241370
204  2 -0.7541  6.635060  8.606150 12.246500
205  2 -0.8346  7.007650 14.731200  0.407676
206  2 -0.9227  6.776320 14.667000  6.298160
207  2 -0.8538  6.629110 14.551000 12.179900
208  2 -0.8319 13.049200  3.010500  0.022315
209  2 -0.6440 12.320600  2.796320  6.449830
210  2 -0.7766 12.348000  2.709270 12.312900
211  2 -0.8440 12.480100  8.633090  0.263195
212  2 -0.7991 12.584300  8.924560  6.231150
213  2 -0.7452 12.744000  8.945830 12.108400
214  2 -0.6652 12.643200 14.971700  0.425063
215  2 -0.7926 12.460000 14.762300  6.207720
216  2 -0.7998 12.516900 14.896300 12.141300

