Generated by pymatgen.io.lammps.data.LammpsData

504  atoms

  2  atom types

0.000000 17.634243  xlo xhi
0.000000 22.133987  ylo yhi
0.000000 41.650458  zlo zhi

Masses

1  208.9804
2   78.9600

Atoms

1    1  0.8672 -0.233138 14.929200 12.358600
2    1  0.8602  1.953120 18.566500 12.382000
3    1  0.8672 -0.233018  7.551270 12.358400
4    1  0.8602  1.953170 11.188400 12.381900
5    1  0.8662  4.163700 14.942200 12.355200
6    1  0.8587  6.367360 18.566300 12.376100
7    1  0.8672 -0.233139  0.173129 12.358600
8    1  0.8601  1.953160  3.810150 12.382100
9    1  0.8662  4.163580  7.563930 12.355200
10   1  0.8587  6.367360 11.188200 12.375900
11   1  0.8672  8.584050 14.929200 12.358600
12   1  0.8602 10.770200 18.566500 12.382000
13   1  0.8662  4.163630  0.186100 12.355000
14   1  0.8588  6.367390  3.809950 12.376000
15   1  0.8671  8.583920  7.551130 12.358700
16   1  0.8602 10.770200 11.188500 12.382000
17   1  0.8662 12.980700 14.942200 12.355200
18   1  0.8588 15.184500 18.566100 12.376200
19   1  0.8672  8.584000  0.173287 12.358500
20   1  0.8602 10.770200  3.810230 12.381900
21   1  0.8662 12.980800  7.564130 12.355100
22   1  0.8588 15.184400 11.188100 12.376100
23   1  0.8662 12.980800  0.186150 12.355000
24   1  0.8588 15.184400  3.810080 12.375800
25   1  0.8685  1.950210 13.506300  1.542000
26   1  0.8605  4.169750 17.249300  1.502510
27   1  0.8685  1.950250  6.128330  1.541920
28   1  0.8605  4.169830  9.871260  1.502530
29   1  0.8672  6.359430 13.505000  1.532040
30   1  0.8606  8.568460 17.241500  1.498410
31   1  0.8685  1.950200 20.884400  1.541950
32   1  0.8605  4.169830  2.493330  1.502450
33   1  0.8672  6.359360  6.127090  1.531940
34   1  0.8605  8.568500  9.863600  1.498300
35   1  0.8685 10.767300 13.506200  1.542020
36   1  0.8605 12.986900 17.249200  1.502480
37   1  0.8672  6.359290 20.883200  1.532020
38   1  0.8605  8.568500  2.485620  1.498310
39   1  0.8685 10.767300  6.128320  1.542020
40   1  0.8604 12.986900  9.871330  1.502570
41   1  0.8672 15.176400 13.505100  1.531920
42   1  0.8606 -0.248532 17.241600  1.498370
43   1  0.8685 10.767400 20.884300  1.541970
44   1  0.8605 12.986900  2.493370  1.502500
45   1  0.8672 15.176500  6.126990  1.531880
46   1  0.8605 -0.248608  9.863550  1.498410
47   1  0.8672 15.176500 20.883100  1.531960
48   1  0.8605 -0.248658  2.485620  1.498350
49   1  0.1723 17.386500 15.320300  6.716030
50   1  0.2048  1.957100 17.511100  6.024640
51   1  0.1723 17.386500  7.942490  6.715970
52   1  0.2048  1.957100 10.133300  6.024590
53   1  0.1729  4.163320 15.311800  6.716020
54   1  0.2063  6.366070 17.514600  6.014870
55   1  0.1723 17.386500  0.564513  6.716060
56   1  0.2048  1.957110  2.755230  6.024730
57   1  0.1729  4.163300  7.933820  6.716090
58   1  0.2063  6.365940 10.136500  6.015050
59   1  0.1723  8.569300 15.320300  6.716190
60   1  0.2048 10.774200 17.511000  6.024640
61   1  0.1729  4.163250  0.555797  6.715990
62   1  0.2063  6.366010  2.758500  6.015020
63   1  0.1723  8.569380  7.942490  6.716080
64   1  0.2048 10.774300 10.133200  6.024420
65   1  0.1729 12.980500 15.311800  6.715970
66   1  0.2063 15.183300 17.514500  6.014770
67   1  0.1723  8.569450  0.564311  6.715990
68   1  0.2048 10.774300  2.755100  6.024820
69   1  0.1729 12.980400  7.933860  6.715920
70   1  0.2063 15.183200 10.136600  6.015020
71   1  0.1729 12.980500  0.555824  6.716120
72   1  0.2063 15.183200  2.758630  6.015050
73   1  0.1714  1.958770 13.056800  7.151060
74   1  0.2041  4.166250 18.241200  7.851050
75   1  0.1714  1.958730  5.678860  7.151110
76   1  0.2041  4.166110 10.863400  7.851150
77   1  0.1717  6.361230 13.057800  7.162050
78   1  0.2043  8.567820 18.253900  7.853840
79   1  0.1715  1.958650 20.434800  7.151050
80   1  0.2041  4.166130  3.485340  7.851310
81   1  0.1717  6.361280  5.679930  7.161960
82   1  0.2043  8.567920 10.876000  7.853850
83   1  0.1715 10.775900 13.056900  7.150950
84   1  0.2041 12.983300 18.241300  7.851000
85   1  0.1717  6.361310 20.435900  7.161900
86   1  0.2044  8.567850  3.497980  7.854120
87   1  0.1714 10.775800  5.678860  7.151130
88   1  0.2041 12.983300 10.863300  7.851060
89   1  0.1717 15.178300 13.058000  7.161980
90   1  0.2043 -0.249257 18.253900  7.853830
91   1  0.1714 10.775900 20.434700  7.151010
92   1  0.2041 12.983300  3.485440  7.851250
93   1  0.1717 15.178400  5.680060  7.161870
94   1  0.2044 -0.249263 10.875900  7.854050
95   1  0.1717 15.178400 20.436000  7.161930
96   1  0.2043 -0.249199  3.498070  7.853930
97   1  0.8597  1.952910 13.649400 26.260100
98   1  0.8670  4.162470 17.402100 26.232300
99   1  0.8597  1.952900  6.271440 26.260100
100  1  0.8670  4.162550 10.024200 26.232200
101  1  0.8587  6.366570 13.647900 26.252100
102  1  0.8680  8.584070 17.385700 26.240500
103  1  0.8598  1.953000 21.027600 26.260100
104  1  0.8670  4.162410  2.646190 26.232200
105  1  0.8587  6.366600  6.269760 26.252100
106  1  0.8680  8.584040 10.007800 26.240500
107  1  0.8597 10.770100 13.649700 26.260400
108  1  0.8670 12.979500 17.402200 26.232300
109  1  0.8587  6.366450 21.025800 26.251900
110  1  0.8680  8.584170  2.629680 26.240500
111  1  0.8597 10.770100  6.271420 26.260100
112  1  0.8670 12.979500 10.024300 26.232000
113  1  0.8587 15.183700 13.647900 26.252200
114  1  0.8680 -0.232992 17.385700 26.240800
115  1  0.8597 10.770000 21.027400 26.260200
116  1  0.8670 12.979500  2.646350 26.232200
117  1  0.8587 15.183700  6.269590 26.252000
118  1  0.8680 -0.233152 10.007700 26.240500
119  1  0.8587 15.183800 21.025900 26.251800
120  1  0.8679 -0.233109  2.629730 26.240600
121  1  0.8690  1.949690 15.965400 15.426700
122  1  0.8612  4.170270 19.707300 15.379500
123  1  0.8690  1.949630  8.587470 15.426400
124  1  0.8613  4.170270 12.328800 15.379300
125  1  0.8672  6.360810 15.963500 15.417600
126  1  0.8611  8.568330 19.696300 15.380900
127  1  0.8691  1.949720  1.209580 15.426500
128  1  0.8613  4.170150  4.950090 15.379900
129  1  0.8672  6.360670  8.585710 15.417500
130  1  0.8611  8.568430 12.318100 15.380700
131  1  0.8691 10.766700 15.965400 15.426600
132  1  0.8612 12.987200 19.707100 15.379700
133  1  0.8673  6.360620  1.207640 15.417200
134  1  0.8611  8.568440  4.940050 15.380700
135  1  0.8690 10.766800  8.587480 15.426500
136  1  0.8613 12.987400 12.329000 15.379400
137  1  0.8673 15.177800 15.963700 15.417500
138  1  0.8611 -0.248558 19.696300 15.380900
139  1  0.8691 10.766900  1.209700 15.426500
140  1  0.8613 12.987500  4.950050 15.379800
141  1  0.8672 15.177800  8.585430 15.417600
142  1  0.8611 -0.248759 12.318300 15.380600
143  1  0.8673 15.177800  1.207870 15.417200
144  1  0.8611 -0.248747  4.940030 15.380700
145  1  0.2046  1.957500 12.592100 19.911400
146  1  0.1729  4.163540 17.764500 20.602200
147  1  0.2046  1.957370  5.214000 19.911500
148  1  0.1729  4.163530 10.386400 20.602200
149  1  0.2063  6.365590 12.596700 19.900500
150  1  0.1724  8.569350 17.779900 20.603200
151  1  0.2046  1.957480 19.970000 19.911400
152  1  0.1729  4.163560  3.008520 20.602500
153  1  0.2063  6.365720  5.218730 19.900300
154  1  0.1723  8.569320 10.402000 20.603100
155  1  0.2046 10.774500 12.592000 19.911500
156  1  0.1729 12.980600 17.764500 20.602300
157  1  0.2063  6.365610 19.974600 19.900300
158  1  0.1724  8.569300  3.023920 20.603100
159  1  0.2046 10.774700  5.213970 19.911400
160  1  0.1728 12.980600 10.386500 20.602300
161  1  0.2063 15.182900 12.596700 19.900600
162  1  0.1723 17.386500 17.779900 20.603200
163  1  0.2046 10.774700 19.970000 19.911200
164  1  0.1729 12.980800  3.008380 20.602300
165  1  0.2063 15.182800  5.218810 19.900300
166  1  0.1723 17.386500 10.401900 20.603100
167  1  0.2063 15.182800 19.974700 19.900500
168  1  0.1724 17.386400  3.023940 20.603200
169  1  0.1711  1.960360 15.513700 21.034900
170  1  0.2045  4.166250 20.699400 21.739300
171  1  0.1711  1.960420  8.135570 21.034900
172  1  0.2045  4.166120 13.321400 21.739500
173  1  0.1713  6.360530 15.515100 21.044200
174  1  0.2047  8.568170 20.721200 21.738900
175  1  0.1711  1.960350  0.757625 21.035000
176  1  0.2045  4.166280  5.943500 21.739300
177  1  0.1713  6.360520  8.137090 21.044200
178  1  0.2047  8.568100 13.343300 21.739000
179  1  0.1711 10.777600 15.513700 21.034900
180  1  0.2045 12.983300 20.699400 21.739200
181  1  0.1713  6.360580  0.759017 21.044200
182  1  0.2047  8.568190  5.965350 21.738900
183  1  0.1711 10.777500  8.135620 21.034700
184  1  0.2045 12.983400 13.321500 21.739400
185  1  0.1713 15.177700 15.515100 21.044400
186  1  0.2047 -0.248976 20.721200 21.739000
187  1  0.1711 10.777500  0.757654 21.034800
188  1  0.2045 12.983300  5.943450 21.739300
189  1  0.1713 15.177700  8.137130 21.044200
190  1  0.2047 -0.248872 13.343300 21.739200
191  1  0.1713 15.177700  0.758926 21.044300
192  1  0.2047 -0.249071  5.965330 21.739100
193  1  0.8611  1.954730 16.109000 40.145700
194  1  0.8679  4.161660 19.855200 40.121900
195  1  0.8611  1.954690  8.731090 40.145700
196  1  0.8679  4.161630 12.477200 40.121900
197  1  0.8593  6.364930 16.110700 40.140500
198  1  0.8687  8.583370 19.843800 40.124900
199  1  0.8611  1.954760  1.353080 40.145700
200  1  0.8679  4.161610  5.099200 40.121800
201  1  0.8593  6.364920  8.732670 40.140500
202  1  0.8687  8.583400 12.466100 40.124700
203  1  0.8611 10.771900 16.108900 40.145800
204  1  0.8679 12.978800 19.855100 40.121900
205  1  0.8593  6.365050  1.354840 40.140500
206  1  0.8687  8.583440  5.088090 40.124800
207  1  0.8611 10.771900  8.731040 40.145700
208  1  0.8680 12.978800 12.477300 40.121800
209  1  0.8593 15.182100 16.110800 40.140500
210  1  0.8687 -0.233758 19.844000 40.124800
211  1  0.8611 10.771700  1.353310 40.145600
212  1  0.8680 12.978800  5.099110 40.121800
213  1  0.8593 15.182200  8.732730 40.140600
214  1  0.8687 -0.233778 12.465900 40.124800
215  1  0.8593 15.182100  1.354640 40.140600
216  1  0.8687 -0.233759  5.087960 40.124700
217  1  0.8601 -0.248910 14.776700 29.260800
218  1  0.8690  1.948500 18.427100 29.308800
219  1  0.8601 -0.249109  7.398730 29.260800
220  1  0.8690  1.948460 11.049200 29.308800
221  1  0.8608  4.169240 14.789100 29.265400
222  1  0.8675  6.361530 18.423400 29.299700
223  1  0.8601 -0.249019  0.020946 29.260800
224  1  0.8690  1.948520  3.671300 29.308600
225  1  0.8607  4.169370  7.411130 29.265400
226  1  0.8675  6.361540 11.045400 29.299900
227  1  0.8601  8.568140 14.776900 29.260800
228  1  0.8690 10.765600 18.427100 29.308800
229  1  0.8608  4.169370  0.032949 29.265400
230  1  0.8675  6.361500  3.667310 29.299700
231  1  0.8601  8.568140  7.398580 29.260800
232  1  0.8690 10.765700 11.049100 29.309000
233  1  0.8607 12.986500 14.789100 29.265500
234  1  0.8675 15.178800 18.423500 29.299800
235  1  0.8601  8.568130  0.020934 29.260700
236  1  0.8690 10.765700  3.671200 29.308700
237  1  0.8608 12.986500  7.411020 29.265400
238  1  0.8675 15.178500 11.045400 29.299700
239  1  0.8608 12.986400  0.032827 29.265300
240  1  0.8675 15.178500  3.667330 29.299700
241  1  0.2046  1.956900 15.056000 33.794900
242  1  0.1726  4.164320 20.238100 34.484600
243  1  0.2046  1.956940  7.678030 33.794900
244  1  0.1726  4.164280 12.859900 34.484600
245  1  0.2060  6.367100 15.065100 33.785300
246  1  0.1719  8.569730 20.245300 34.485600
247  1  0.2046  1.956940  0.300061 33.794900
248  1  0.1726  4.164240  5.482000 34.484500
249  1  0.2060  6.367080  7.687070 33.785300
250  1  0.1719  8.569840 12.867200 34.485500
251  1  0.2046 10.774100 15.056100 33.795000
252  1  0.1726 12.981400 20.238100 34.484600
253  1  0.2060  6.367010  0.309272 33.785200
254  1  0.1719  8.569770  5.489280 34.485700
255  1  0.2046 10.774000  7.677980 33.795100
256  1  0.1726 12.981400 12.860000 34.484500
257  1  0.2061 15.184200 15.065100 33.785300
258  1  0.1719 17.387100 20.245300 34.485400
259  1  0.2046 10.774000  0.300164 33.794800
260  1  0.1726 12.981400  5.482060 34.484800
261  1  0.2060 15.184200  7.687000 33.785400
262  1  0.1719 17.386900 12.867200 34.485500
263  1  0.2060 15.184300  0.309210 33.785200
264  1  0.1719 17.387000  5.489280 34.485500
265  1  0.2043 -0.248470 15.801800 35.625300
266  1  0.1712  1.958900 17.983400 34.921700
267  1  0.2043 -0.248453  8.423840 35.625400
268  1  0.1712  1.958910 10.605400 34.921700
269  1  0.2041  4.166110 15.791000 35.622200
270  1  0.1713  6.362220 17.986700 34.929900
271  1  0.2042 -0.248374  1.045770 35.625300
272  1  0.1712  1.958840  3.227490 34.921600
273  1  0.2041  4.166150  8.413150 35.622300
274  1  0.1713  6.362170 10.608800 34.929800
275  1  0.2043  8.568660 15.801700 35.625400
276  1  0.1712 10.775900 17.983500 34.921700
277  1  0.2041  4.166040  1.035060 35.622300
278  1  0.1713  6.362150  3.230790 34.929900
279  1  0.2043  8.568560  8.423860 35.625500
280  1  0.1712 10.775900 10.605500 34.921700
281  1  0.2041 12.983200 15.791200 35.622300
282  1  0.1713 15.179300 17.986800 34.929900
283  1  0.2042  8.568590  1.045840 35.625200
284  1  0.1712 10.776000  3.227500 34.921700
285  1  0.2041 12.983200  8.413240 35.622300
286  1  0.1713 15.179300 10.608800 34.930000
287  1  0.2041 12.983300  1.035060 35.622200
288  1  0.1713 15.179400  3.230750 34.929900
289  2 -0.7936 -0.243881 14.824000 41.636200
290  2 -0.7929  1.958090 18.535200  0.028146
291  2 -0.7936 -0.243794  7.446040 41.636200
292  2 -0.7929  1.958130 11.157100  0.028184
293  2 -0.7937  4.157020 14.830700 41.624500
294  2 -0.7941  6.370710 18.521600  0.015904
295  2 -0.7936 -0.243812 22.202100 41.636200
296  2 -0.7929  1.958110  3.779190  0.028182
297  2 -0.7937  4.156890  7.452760 41.624400
298  2 -0.7941  6.370710 11.143600  0.015819
299  2 -0.7936  8.573170 14.824000 41.636300
300  2 -0.7929 10.775200 18.535100  0.028306
301  2 -0.7937  4.156940 22.208900 41.624400
302  2 -0.7941  6.370670  3.765590  0.015745
303  2 -0.7936  8.573250  7.446100 41.636200
304  2 -0.7929 10.775200 11.157100  0.028145
305  2 -0.7937 12.974000 14.830700 41.624500
306  2 -0.7941 15.187800 18.521600  0.015843
307  2 -0.7936  8.573280 22.202100 41.636100
308  2 -0.7929 10.775200  3.779250  0.028035
309  2 -0.7936 12.974000  7.452690 41.624400
310  2 -0.7941 15.187800 11.143500  0.015740
311  2 -0.7936 12.974000 22.208900 41.624300
312  2 -0.7941 15.187800  3.765580  0.015711
313  2 -0.6539  1.963410 15.894300  2.874770
314  2 -0.6582  4.164250 19.582300  2.989160
315  2 -0.6539  1.963390  8.516400  2.874810
316  2 -0.6582  4.164310 12.204300  2.989240
317  2 -0.6546  6.362780 15.878400  2.886720
318  2 -0.6579  8.564010 19.581000  2.972810
319  2 -0.6539  1.963370  1.138350  2.874760
320  2 -0.6581  4.164300  4.826340  2.989270
321  2 -0.6546  6.362750  8.500420  2.886700
322  2 -0.6580  8.563950 12.203300  2.972750
323  2 -0.6539 10.780400 15.894300  2.874830
324  2 -0.6582 12.981500 19.582200  2.989050
325  2 -0.6546  6.362780  1.122480  2.886640
326  2 -0.6580  8.563950  4.825050  2.972890
327  2 -0.6540 10.780400  8.516330  2.874710
328  2 -0.6582 12.981500 12.204400  2.989330
329  2 -0.6546 15.179900 15.878400  2.886490
330  2 -0.6580 17.381100 19.581100  2.972860
331  2 -0.6539 10.780500  1.138330  2.874740
332  2 -0.6582 12.981500  4.826330  2.989140
333  2 -0.6546 15.179900  8.500430  2.886670
334  2 -0.6580 17.381000 12.203100  2.972890
335  2 -0.6546 15.179900  1.122460  2.886540
336  2 -0.6579 17.381000  4.825120  2.972850
337  2 -0.6577  1.961140 16.241900 10.894800
338  2 -0.6511  4.156960 19.930500 11.011400
339  2 -0.6577  1.961080  8.864210 10.894700
340  2 -0.6511  4.157100 12.552700 11.011500
341  2 -0.6574  6.373410 16.231600 10.892800
342  2 -0.6530  8.575620 19.930500 11.010200
343  2 -0.6577  1.961020  1.485720 10.894700
344  2 -0.6511  4.157120  5.174570 11.011600
345  2 -0.6574  6.373420  8.853480 10.893000
346  2 -0.6530  8.575490 12.552700 11.010300
347  2 -0.6577 10.778200 16.242000 10.894700
348  2 -0.6511 12.974200 19.930400 11.011500
349  2 -0.6574  6.373430  1.475390 10.893000
350  2 -0.6530  8.575380  5.174540 11.010400
351  2 -0.6577 10.778200  8.864370 10.894600
352  2 -0.6511 12.974200 12.552600 11.011300
353  2 -0.6574 15.190500 16.231500 10.892800
354  2 -0.6529 -0.241627 19.930500 11.010300
355  2 -0.6577 10.778200  1.485890 10.894800
356  2 -0.6511 12.974200  5.174620 11.011500
357  2 -0.6574 15.190500  8.853560 10.893000
358  2 -0.6529 -0.241624 12.552500 11.010400
359  2 -0.6574 15.190700  1.475400 10.893100
360  2 -0.6530 -0.241606  5.174730 11.010300
361  2 -0.7927  1.957170 13.615400 13.914700
362  2 -0.7952  4.157320 17.286600 13.861800
363  2 -0.7926  1.957150  6.237240 13.914900
364  2 -0.7953  4.157320  9.908400 13.861700
365  2 -0.7940  6.371880 13.596800 13.901000
366  2 -0.7959  8.573430 17.282400 13.876900
367  2 -0.7927  1.957130 20.993600 13.914800
368  2 -0.7954  4.157390  2.530190 13.861600
369  2 -0.7940  6.371720  6.218550 13.901400
370  2 -0.7959  8.573530  9.904070 13.876900
371  2 -0.7927 10.774200 13.615300 13.914800
372  2 -0.7953 12.974400 17.286300 13.861800
373  2 -0.7941  6.371730 20.975200 13.901000
374  2 -0.7959  8.573480  2.526090 13.876900
375  2 -0.7926 10.774400  6.237230 13.915000
376  2 -0.7953 12.974300  9.908420 13.861500
377  2 -0.7940 15.189000 13.597100 13.901000
378  2 -0.7959 -0.243752 17.282200 13.876800
379  2 -0.7927 10.774200 20.993500 13.914900
380  2 -0.7954 12.974500  2.530350 13.861400
381  2 -0.7940 15.188900  6.218500 13.901200
382  2 -0.7959 -0.243624  9.904250 13.876500
383  2 -0.7940 15.189100 20.974900 13.901300
384  2 -0.7960 -0.243700  2.526170 13.876900
385  2 -0.6572 17.381500 14.665600 16.854900
386  2 -0.6531  1.964410 18.352800 16.757500
387  2 -0.6572 17.381600  7.287230 16.855000
388  2 -0.6531  1.964330 10.974800 16.757300
389  2 -0.6570  4.164720 14.657300 16.872500
390  2 -0.6539  6.362120 18.334900 16.771800
391  2 -0.6572 17.381600 -0.090655 16.855100
392  2 -0.6531  1.964390  3.596400 16.757900
393  2 -0.6570  4.164530  7.279290 16.872700
394  2 -0.6538  6.362230 10.956900 16.771600
395  2 -0.6572  8.564380 14.665300 16.854900
396  2 -0.6531 10.781500 18.352700 16.757700
397  2 -0.6570  4.164470 -0.097283 16.872500
398  2 -0.6538  6.362380  3.578590 16.772000
399  2 -0.6572  8.564340  7.287360 16.854800
400  2 -0.6531 10.781500 10.974800 16.757300
401  2 -0.6570 12.981700 14.657900 16.872500
402  2 -0.6538 15.179400 18.334800 16.771600
403  2 -0.6572  8.564440 -0.090592 16.855100
404  2 -0.6531 10.781400  3.596390 16.757700
405  2 -0.6570 12.981700  7.279180 16.872600
406  2 -0.6539 15.179400 10.957000 16.771400
407  2 -0.6570 12.981500 -0.097402 16.872500
408  2 -0.6539 15.179500  3.578750 16.772100
409  2 -0.6543 -0.242747 15.009100 24.889400
410  2 -0.6581  1.960340 18.697800 24.779000
411  2 -0.6544 -0.242874  7.630630 24.889400
412  2 -0.6581  1.960210 11.319500 24.778700
413  2 -0.6529  4.156810 15.007000 24.890100
414  2 -0.6576  6.373330 18.687900 24.778200
415  2 -0.6544 -0.242676  0.252782 24.889400
416  2 -0.6581  1.960210  3.941630 24.778600
417  2 -0.6529  4.156940  7.628600 24.890000
418  2 -0.6576  6.373380 11.309800 24.778300
419  2 -0.6544  8.574380 15.009000 24.889500
420  2 -0.6581 10.777400 18.697700 24.778700
421  2 -0.6529  4.156720  0.250796 24.890100
422  2 -0.6576  6.373390  3.931790 24.778100
423  2 -0.6543  8.574450  7.630890 24.889400
424  2 -0.6581 10.777300 11.319800 24.778800
425  2 -0.6529 12.974000 15.006900 24.890200
426  2 -0.6576 15.190400 18.687800 24.778200
427  2 -0.6543  8.574410  0.252884 24.889500
428  2 -0.6581 10.777300  3.941650 24.778500
429  2 -0.6529 12.973900  7.628630 24.889900
430  2 -0.6576 15.190500 11.310000 24.778200
431  2 -0.6529 12.973800  0.250962 24.890100
432  2 -0.6576 15.190400  3.931710 24.778000
433  2 -0.7925  1.956980 16.076800 27.801000
434  2 -0.7940  4.156690 19.740400 27.740900
435  2 -0.7924  1.956870  8.698850 27.801000
436  2 -0.7940  4.156580 12.362300 27.741000
437  2 -0.7932  6.370520 16.061000 27.783800
438  2 -0.7956  8.572810 19.740100 27.750800
439  2 -0.7924  1.956900  1.320880 27.801100
440  2 -0.7940  4.156640  4.984180 27.741200
441  2 -0.7932  6.370570  8.683010 27.783900
442  2 -0.7956  8.572990 12.361900 27.750800
443  2 -0.7925 10.774000 16.076800 27.801000
444  2 -0.7940 12.973800 19.740300 27.741100
445  2 -0.7932  6.370540  1.304890 27.783800
446  2 -0.7956  8.572890  4.983950 27.751000
447  2 -0.7924 10.774100  8.698950 27.801100
448  2 -0.7940 12.973600 12.362100 27.741100
449  2 -0.7932 15.187700 16.060900 27.783800
450  2 -0.7956 -0.244187 19.740100 27.750700
451  2 -0.7925 10.774000  1.320860 27.800900
452  2 -0.7941 12.973800  4.984320 27.741200
453  2 -0.7932 15.187600  8.683030 27.783700
454  2 -0.7956 -0.244190 12.361800 27.750700
455  2 -0.7932 15.187600  1.304790 27.783800
456  2 -0.7957 -0.244297  4.983890 27.750900
457  2 -0.6535  1.964420 13.438400 30.643000
458  2 -0.6561  4.164220 17.120900 30.754900
459  2 -0.6534  1.964400  6.060390 30.642800
460  2 -0.6561  4.164180  9.742700 30.755100
461  2 -0.6540  6.362170 13.419300 30.655400
462  2 -0.6566  8.563220 17.125300 30.739100
463  2 -0.6534  1.964380 20.816300 30.642800
464  2 -0.6560  4.164240  2.364640 30.754900
465  2 -0.6539  6.362190  6.041150 30.655700
466  2 -0.6566  8.563380  9.747210 30.739300
467  2 -0.6534 10.781500 13.438500 30.643000
468  2 -0.6561 12.981500 17.120600 30.755000
469  2 -0.6540  6.362240 20.797200 30.655400
470  2 -0.6566  8.563280  2.369610 30.739100
471  2 -0.6534 10.781600  6.060490 30.642900
472  2 -0.6561 12.981400  9.742850 30.754800
473  2 -0.6540 15.179400 13.419200 30.655500
474  2 -0.6566 17.380400 17.125200 30.739200
475  2 -0.6535 10.781400 20.816300 30.642900
476  2 -0.6560 12.981400  2.364710 30.754800
477  2 -0.6539 15.179300  6.041080 30.655800
478  2 -0.6566 17.380300  9.747280 30.739200
479  2 -0.6540 15.179400 20.797000 30.655300
480  2 -0.6566 17.380400  2.369510 30.739100
481  2 -0.6577  1.959500 13.780000 38.668400
482  2 -0.6530  4.155980 17.476800 38.776600
483  2 -0.6577  1.959560  6.401980 38.668400
484  2 -0.6530  4.155860 10.098800 38.776600
485  2 -0.6569  6.370710 13.771600 38.666800
486  2 -0.6543  8.575610 17.473000 38.777900
487  2 -0.6577  1.959570 21.157900 38.668500
488  2 -0.6530  4.155880  2.721000 38.776500
489  2 -0.6569  6.370660  6.393530 38.666800
490  2 -0.6543  8.575700 10.095100 38.777800
491  2 -0.6577 10.776800 13.779900 38.668500
492  2 -0.6530 12.973000 17.476800 38.776800
493  2 -0.6569  6.370650 21.149600 38.666900
494  2 -0.6543  8.575620  2.717340 38.777600
495  2 -0.6577 10.776800  6.401980 38.668600
496  2 -0.6529 12.973100 10.099000 38.776700
497  2 -0.6569 15.187700 13.771600 38.667000
498  2 -0.6543 -0.241448 17.473200 38.777800
499  2 -0.6576 10.776700 21.158100 38.668400
500  2 -0.6529 12.973100  2.720890 38.776600
501  2 -0.6569 15.187900  6.393490 38.667000
502  2 -0.6543 -0.241487 10.095100 38.777800
503  2 -0.6569 15.187900 21.149400 38.666800
504  2 -0.6543 -0.241470  2.717080 38.777800

