Generated by pymatgen.io.lammps.data.LammpsData

320  atoms

  2  atom types

0.000000 16.864293  xlo xhi
0.000000 23.165087  ylo yhi
0.000000 24.472453  zlo zhi

Masses

1  208.9804
2   78.9600

Atoms

1    1  0.7671  1.188450 11.479400 10.298200
2    1  0.8643  0.555162 10.627100 22.679000
3    1  0.8708  0.909835 23.131200 10.975400
4    1  0.8895  0.887709 22.800800 23.170900
5    1  0.8521  5.020690 11.360100 10.451500
6    1  0.8388  5.182480 10.921900 22.971300
7    1  0.7757  4.777500 22.685000 11.238700
8    1  0.8118  5.299310 22.590200 23.311300
9    1  0.8267  9.078860 10.952500 10.841900
10   1  0.8322  9.133510 10.900700 23.015000
11   1  0.9025  9.171460 22.930400 11.365700
12   1  0.8654  9.144400 22.594100 23.353200
13   1  0.8615 13.452600 10.712600 10.577500
14   1  0.8279 13.541200 10.863900 23.514500
15   1  0.8919 13.064000 -0.137002 10.993300
16   1  0.7895 13.430900 22.452900 23.011100
17   1  0.8789  3.469900 23.049900  2.901420
18   1  0.8184  3.068180  0.205035 15.261200
19   1  0.9036  3.183260 11.524200  2.186060
20   1  0.8250  2.960670 11.978400 14.383700
21   1  0.8345  7.017200  0.237706  2.187340
22   1  0.8403  6.684860 -0.001735 14.981400
23   1  0.8276  7.364490 11.951300  1.814490
24   1  0.7821  7.604260 11.622400 14.203000
25   1  0.8740 11.790500 23.378100  2.595950
26   1  0.7395 11.378400  0.284866 14.922200
27   1  0.8237 11.687500 11.822000  2.150430
28   1  0.8213 11.166600 11.279300 13.960800
29   1  0.8811 15.851600 23.455900  2.078120
30   1  0.8492 15.888400  0.129056 14.881900
31   1  0.8361 15.318300 11.607600  2.396330
32   1  0.8305 15.971900 11.807000 14.400500
33   1  0.8785  2.712290  5.589930  8.110960
34   1  0.8054  2.864800  5.021370 21.152500
35   1  0.7875  2.685420 16.403600  7.885990
36   1  0.8129  2.531710 17.013000 21.080700
37   1  0.8084  6.953370  6.264870  8.795580
38   1  0.8121  7.524940  5.114490 21.233700
39   1  0.8409  6.690760 17.095200  8.898330
40   1  0.8818  6.967520 17.080800 20.451700
41   1  0.8271 10.946800  5.480420  8.178730
42   1  0.8155 11.384900  5.196360 21.078100
43   1  0.8091 11.546300 17.196900  8.236980
44   1  0.7735 11.144000 16.582000 20.562800
45   1  0.8628 15.167000  5.402560  8.299320
46   1  0.8220 15.364800  5.393880 21.008700
47   1  0.7792 15.301100 17.189200  8.047690
48   1  0.8258 15.112500 16.506700 20.367000
49   1  0.8077  1.211610  5.775820  4.466440
50   1  0.8180  0.839971  5.859890 17.294800
51   1  0.7972  0.284666 17.867100  4.784940
52   1  0.8300  0.804908 17.213400 17.271000
53   1  0.7612  5.022570  6.563230  4.709180
54   1  0.8593  4.942190  5.766470 17.313100
55   1  0.8218  4.888080 17.892300  4.522850
56   1  0.8075  4.801570 17.146100 16.776400
57   1  0.7855  9.364980  6.346380  4.297020
58   1  0.8280  9.407380  5.958120 17.516400
59   1  0.8040  9.441420 18.365100  4.539590
60   1  0.8559  8.536220 17.482400 16.666300
61   1  0.8826 13.506300  6.331410  4.724660
62   1  0.8234 13.954000  5.414320 17.186700
63   1  0.8565 13.080300 18.134200  4.637930
64   1  0.8749 13.749800 17.332900 15.799700
65   1  0.7861  0.476722  1.946440  6.231430
66   1  0.8370  1.170760  2.111460 18.545000
67   1  0.7906  0.887239 13.849900  6.144020
68   1  0.7778  0.617162 13.654600 18.211000
69   1  0.8225  5.112480  2.271400  6.864430
70   1  0.8215  5.242640  1.743280 18.566600
71   1  0.8071  4.953540 13.868300  5.827880
72   1  0.8262  5.091850 13.510400 18.435800
73   1  0.7913  8.741690  1.809030  6.590800
74   1  0.8197  9.960490  1.904970 18.553000
75   1  0.8519  9.384020 13.657100  6.065160
76   1  0.7635  8.850400 13.473500 18.229300
77   1  0.7696 13.625000  2.141030  6.611200
78   1  0.8184 14.225500  1.361070 18.624000
79   1  0.7975 13.484200 13.588200  5.970420
80   1  0.7291 13.592700 13.158600 18.088000
81   1  0.8399  2.391420  9.891780  6.997190
82   1  0.8354  2.609120  8.893950 19.411900
83   1  0.8058  2.568170 21.739900  7.192920
84   1  0.8301  2.716580 20.764700 19.323700
85   1  0.8530  6.932190 10.301800  6.229450
86   1  0.8870  7.106340  9.523630 19.322900
87   1  0.8064  6.882530 21.597900  7.159600
88   1  0.8222  6.799520 21.076800 19.345500
89   1  0.8578 11.556800  9.401450  6.605530
90   1  0.8092 11.377200  9.495960 18.907300
91   1  0.8473 11.119000 21.553500  6.804640
92   1  0.7921 11.323800 20.793600 20.012600
93   1  0.7883 15.671400 10.000900  6.409690
94   1  0.7931 15.303000  9.291420 19.136700
95   1  0.8561 15.482600 20.754200  6.836940
96   1  0.8880 15.403200 20.547900 19.175200
97   1  0.7702  2.978190  7.535810 13.314200
98   1  0.8006  3.213930  7.583570  0.943701
99   1  0.7742  2.856110 19.042300 12.916500
100  1  0.7908  3.011580 18.927900  0.982441
101  1  0.8540  7.518350  7.644740 13.099100
102  1  0.7784  7.180120  7.697320  1.066160
103  1  0.8123  6.584100 19.253900 12.716900
104  1  0.7916  7.528460 19.216600 25.324900
105  1  0.8344 11.667800  7.487330 13.460100
106  1  0.8323 11.390400  7.597430  0.661822
107  1  0.7591 12.000100 19.639700 12.939500
108  1  0.7983 11.662000 19.043900  0.496612
109  1  0.8119 15.879900  7.865410 12.872300
110  1  0.8582 15.714100  7.592170  1.010030
111  1  0.7539 15.657600 19.100100 13.042700
112  1  0.7974 15.255700 19.164200 24.336200
113  1  0.8241  0.570923  4.118600  0.541257
114  1  0.7608  1.840370  3.945140 12.448300
115  1  0.8552  0.596645 14.985500 24.399500
116  1  0.7975  0.946481 15.373300 11.739800
117  1  0.8195  4.977010  3.581900  0.107193
118  1  0.7925  5.212520  3.278480 12.732000
119  1  0.8127  4.936480 15.327500 24.904200
120  1  0.8446  5.399510 15.727400 12.397100
121  1  0.8121  9.136010  4.133880  0.092418
122  1  0.8632  9.132610  3.956750 12.814200
123  1  0.8310  9.416390 15.556800  0.586539
124  1  0.7938  9.438010 15.198700 11.642200
125  1  0.8456 13.370200  3.413140  0.583133
126  1  0.8070 13.623900  3.978970 12.557600
127  1  0.8195 13.842000 14.705000 23.865600
128  1  0.8261 13.493900 15.774600 11.805000
129  2 -0.4910  0.504495  3.787090  8.815020
130  2 -0.5149  0.635144  3.456910 22.025300
131  2 -0.5992  0.534204 14.865200  8.770710
132  2 -0.5116  0.653837 14.671000 21.437600
133  2 -0.4894  4.698650  3.841630  9.156700
134  2 -0.5135  4.726530  3.061690 21.748000
135  2 -0.5095  5.009490 14.936300  8.857100
136  2 -0.3800  5.191090 14.951700 21.406800
137  2 -0.4624  8.972590  3.508050  8.971140
138  2 -0.5601  9.566300  3.322860 21.807100
139  2 -0.5180  9.160410 15.244400  8.589120
140  2 -0.4580  8.828440 15.029900 20.975900
141  2 -0.5064 12.920200  3.612240  9.292910
142  2 -0.4696 13.557500  3.387330 21.858200
143  2 -0.6120 13.390300 15.323900  8.826690
144  2 -0.6026 13.510500 14.387000 20.872300
145  2 -0.5065  2.745230  8.411000  3.973060
146  2 -0.5526  2.983090  7.801440 16.863600
147  2 -0.5075  2.828590 19.755200  4.116120
148  2 -0.4899  2.705510 19.080700 16.539300
149  2 -0.5866  6.999960  8.462020  3.734730
150  2 -0.4602  7.218470  7.978670 16.821600
151  2 -0.4952  7.054680 19.722900  4.235780
152  2 -0.4268  6.754560 19.547900 16.172500
153  2 -0.5553 11.344700  8.159740  3.918210
154  2 -0.5152 11.663300  7.584850 16.521300
155  2 -0.5370 11.126200 20.133600  3.689050
156  2 -0.4047 11.773100 19.346000 16.199300
157  2 -0.5055 15.700900  8.260140  4.105970
158  2 -0.5403 15.378900  7.741890 16.676500
159  2 -0.5147 15.418300 19.730600  4.073600
160  2 -0.5045 16.004200 18.977000 16.424000
161  2 -0.4516  2.928370  9.035160  9.867000
162  2 -0.5045  2.856390  9.083480 22.247400
163  2 -0.5415  2.568010 21.207900 10.085800
164  2 -0.4920  2.943780 20.770700 22.856700
165  2 -0.5248  7.144030  9.233300 10.231600
166  2 -0.5549  7.210040  9.098000 22.506600
167  2 -0.5427  7.778130 21.082200 10.585000
168  2 -0.5632  7.656990 20.432200 22.411700
169  2 -0.4730 11.440000  9.173030 10.117100
170  2 -0.4722 11.595800  8.960530 22.395800
171  2 -0.5327 11.329700 21.304200 10.455900
172  2 -0.6807 11.282000 20.746200 22.664200
173  2 -0.4587 15.943400  9.022840  9.537940
174  2 -0.5132 15.348900  8.826510 22.470300
175  2 -0.3973 15.781300 21.371200 10.382900
176  2 -0.5785 15.599000 20.727400 22.158800
177  2 -0.5157  1.028850  1.815810  2.426330
178  2 -0.5173  1.145200  2.145520 15.468200
179  2 -0.4194  0.425653 13.404700  2.488700
180  2 -0.5849  1.104620 13.603400 14.839200
181  2 -0.4701  5.023600  2.108710  3.065780
182  2 -0.5991  5.210880  2.106470 15.858600
183  2 -0.6041  5.248970 13.559300  2.768630
184  2 -0.5096  5.559490 13.569100 15.016900
185  2 -0.4419  9.159930  1.975080  2.870680
186  2 -0.5052  9.017980  2.058790 15.718600
187  2 -0.5465  9.455690 13.427200  2.829050
188  2 -0.4856  9.414370 14.052300 14.276900
189  2 -0.5909 13.917800  2.001050  2.864950
190  2 -0.5019 14.249200  2.142020 15.505800
191  2 -0.4846 13.485100 13.846900  2.731790
192  2 -0.3934 13.914400 13.812700 14.898900
193  2 -0.5343  0.912294 11.097900  4.951780
194  2 -0.5288  0.456033 10.709500 17.323700
195  2 -0.5152  0.700740 22.334400  5.202660
196  2 -0.4404  0.684907 21.816300 17.344000
197  2 -0.5359  4.554590 10.972900  5.318040
198  2 -0.4650  5.063670 10.419000 17.842100
199  2 -0.5972  4.802370 22.706200  5.379350
200  2 -0.5649  4.736540 22.069800 17.760600
201  2 -0.4583  9.257660 10.936400  4.921100
202  2 -0.5641  9.087390 10.927000 17.250600
203  2 -0.6130  8.750060 22.439500  5.617300
204  2 -0.4528  9.215930 22.087700 17.837300
205  2 -0.6571 13.602800 10.907700  5.013670
206  2 -0.5182 13.024000 10.694100 16.668000
207  2 -0.4881 13.508500 22.271500  5.365520
208  2 -0.5577 13.651400 22.177100 17.586500
209  2 -0.5097  2.719760  1.319800  8.498570
210  2 -0.5161  2.902880  0.415226 20.112900
211  2 -0.6017  2.701590 12.377500  8.006690
212  2 -0.3755  2.985650 11.914400 20.565900
213  2 -0.5594  6.922030  1.056750  8.661840
214  2 -0.4887  7.290040  0.777437 20.600500
215  2 -0.4669  7.053190 12.631900  7.730030
216  2 -0.4933  6.700490 12.138100 20.400000
217  2 -0.5286 11.116500  0.805864  7.999780
218  2 -0.5016 11.906400  0.761512 20.595800
219  2 -0.4762 10.401900 11.736400  7.864360
220  2 -0.4582 10.750600 11.983500 20.561000
221  2 -0.5319 15.490000  0.575369  7.769230
222  2 -0.5191 16.142300  0.228191 20.221600
223  2 -0.5076 15.235600 12.371300  8.390970
224  2 -0.5139 15.765100 11.837400 20.808500
225  2 -0.5768  2.936680  4.758080  2.037280
226  2 -0.5614  3.219090  5.098560 14.662200
227  2 -0.5244  2.693390 16.009600  1.778350
228  2 -0.5532  3.283010 16.307600 14.132400
229  2 -0.5714  7.082480  4.785170  2.014940
230  2 -0.5441  7.043220  4.890080 14.168100
231  2 -0.6213  6.727490 16.977100  2.083420
232  2 -0.6303  7.025370 16.953500 13.801500
233  2 -0.5548 11.439900  4.954040  1.952490
234  2 -0.5279 11.364200  4.829170 14.522500
235  2 -0.5341 11.662000 16.756400  1.738980
236  2 -0.5233 11.509900 16.808800 13.379600
237  2 -0.5556 15.622000  5.093310  2.552550
238  2 -0.4914 15.936200  4.911870 14.058200
239  2 -0.4249 15.285600 16.604700  1.466800
240  2 -0.6208 15.408400 16.640000 13.861300
241  2 -0.4861  1.307850  6.569470 11.115700
242  2 -0.6002  0.753604  6.551580 23.953300
243  2 -0.4375  0.557463 18.331500 10.652400
244  2 -0.5268  0.753886 17.958400 23.579800
245  2 -0.5059  5.461090  6.407770 11.536100
246  2 -0.5299  4.707700  6.375500 23.313300
247  2 -0.6787  4.875490 18.045900 11.041400
248  2 -0.5082  4.675600 17.709200 22.862600
249  2 -0.5694  9.583710  6.563770 11.898600
250  2 -0.6465  9.116500  6.531790 23.537100
251  2 -0.4049  9.925420 18.344000 10.684100
252  2 -0.5521  9.678700 17.800900 23.486300
253  2 -0.4796 13.691200  6.764260 11.089100
254  2 -0.5062 13.382300  6.131190 23.752100
255  2 -0.5730 13.713300 18.679100 10.788500
256  2 -0.6015 13.527500 17.709000 22.421600
257  2 -0.5160  0.967707  9.854920  1.433280
258  2 -0.6702  0.757889  9.782510 13.297500
259  2 -0.5080  0.705941 21.460700  1.048300
260  2 -0.5389  0.848422 21.416500 13.830900
261  2 -0.6948  5.164360  9.797230  1.056710
262  2 -0.5877  5.129990 10.649900 13.074400
263  2 -0.6370  5.068370 21.250700  1.439940
264  2 -0.6560  4.788620 21.374300 13.952100
265  2 -0.6339  9.354280 10.213700  1.337120
266  2 -0.7637  9.302240  9.492060 13.472500
267  2 -0.5883  9.124270 21.338000  1.406780
268  2 -0.5446  9.056950 21.772200 13.900600
269  2 -0.7146 13.576700  9.502940  1.231070
270  2 -0.6182 13.660200  9.787200 13.119500
271  2 -0.5820 13.460400 21.538200  1.618470
272  2 -0.6659 13.694900 22.231200 13.450400
273  2 -0.7175  3.011550  1.226380 12.259300
274  2 -0.5194  3.406410  0.825957 24.450100
275  2 -0.5761  3.019470 13.389800 11.476200
276  2 -0.5198  2.800840 12.516100 24.259500
277  2 -0.6440  7.038770  1.243940 12.321500
278  2 -0.6298  7.184520  1.266120 24.022500
279  2 -0.5701  7.054480 13.231000 11.420100
280  2 -0.5543  7.441050 13.616400 23.974900
281  2 -0.5808 11.083900  2.117730 12.093900
282  2 -0.5405 11.231600  1.176400 24.524400
283  2 -0.6009 11.298400 12.496000 11.616800
284  2 -0.5800 11.463900 12.959100 23.989000
285  2 -0.5108 15.085200  1.507490 11.471600
286  2 -0.5946 15.578500  1.285030 23.974900
287  2 -0.4721 15.353300 13.401400 11.730400
288  2 -0.6709 15.515700 12.813500 24.067500
289  2 -0.6124  2.725170  3.931810  5.852460
290  2 -0.6769  3.008990  3.928660 18.181200
291  2 -0.6878  2.678220 15.671100  5.230620
292  2 -0.6790  2.684970 15.079500 18.467400
293  2 -0.5946  6.464930  4.851230  6.138380
294  2 -0.5902  7.486860  4.247010 18.659000
295  2 -0.4967  7.242180 16.263000  5.759660
296  2 -0.7371  6.741090 15.841700 18.137800
297  2 -0.5862 11.283000  4.508490  5.466750
298  2 -0.6595 11.550900  3.919130 18.348600
299  2 -0.5863 11.393400 15.908200  5.285270
300  2 -0.4862 10.861800 15.545000 17.145000
301  2 -0.6091 15.341400  4.674110  5.666820
302  2 -0.6700 15.929600  3.633910 17.891800
303  2 -0.6340 15.177600 15.803200  5.472680
304  2 -0.6479 15.393900 15.630400 17.357100
305  2 -0.5477  0.678923  6.974970  7.202060
306  2 -0.6804  0.542415  7.012060 19.830400
307  2 -0.6232  0.605221 18.902200  7.433580
308  2 -0.6281  0.275210 18.443200 20.064900
309  2 -0.5409  4.748170  8.088510  7.463620
310  2 -0.5098  5.203350  6.905940 20.001200
311  2 -0.5185  4.617100 18.673900  7.562470
312  2 -0.6170  4.962800 18.797900 19.405900
313  2 -0.5670  9.274660  7.679380  7.274160
314  2 -0.5815  9.192300  7.722160 19.776400
315  2 -0.4653  8.767480 18.941100  7.673790
316  2 -0.5644  9.030510 18.826300 19.161200
317  2 -0.6304 13.091300  7.175210  7.274500
318  2 -0.5953 13.514200  7.076900 19.870400
319  2 -0.7459 12.996100 19.130200  6.812290
320  2 -0.5487 13.714800 18.471000 19.050700

