Generated by pymatgen.io.lammps.data.LammpsData

320  atoms

  2  atom types

0.000000 16.864293  xlo xhi
0.000000 23.165087  ylo yhi
0.000000 24.472453  zlo zhi

Masses

1  208.9804
2   78.9600

Atoms

1    1  0.7498  4.144500 13.276200  4.129080
2    1  0.7667 10.126300 10.956400  0.076595
3    1  0.5520  0.014636  4.670980 16.776900
4    1  0.6602 -0.052253  1.961340 20.424800
5    1  0.6767  9.233990 15.493700 14.562000
6    1  0.7981  7.280090 15.768500 17.592200
7    1  0.7859  7.508190  2.716850 11.938800
8    1  0.4637  2.150520  4.488530 18.778600
9    1  0.8764 14.987100 13.081800 10.876000
10   1  0.6721  6.458700  9.895870 23.741200
11   1  0.6936 11.231700  1.060620 10.243200
12   1  0.8619 15.800500 22.132600  1.329630
13   1  0.7715  1.654960 10.143400  6.303390
14   1  0.6711  8.220030  7.406600  0.985901
15   1  0.6777  0.843717 20.312900 11.910100
16   1  0.8375  3.121380  1.218560 24.307600
17   1  0.6992  6.247990  0.969337  4.265860
18   1  0.7630 15.906700  6.700000  8.599870
19   1  0.8751  6.794400  9.058260  3.759590
20   1  0.7263  4.524760  5.054360  8.636690
21   1  0.8066  7.916600  3.493340  8.352240
22   1  0.8140 13.737000  1.467360 23.271300
23   1  0.7571 11.020900 11.878500  3.908600
24   1  0.7310  6.604950 10.313700 13.012900
25   1  0.8402  7.233020  4.860950  5.023780
26   1  0.8051  1.178340  0.251698 13.308800
27   1  0.8413 12.772800 10.729400  7.071630
28   1  0.7405  7.597990 11.102400 15.917500
29   1  0.7105 14.295200  5.968170 22.887300
30   1  0.6904  5.009720  0.410887 11.632400
31   1  0.8117  4.986350  5.374450  1.129810
32   1  0.8115  0.510231  6.829990 13.627000
33   1  0.8001  2.232180  7.055460 10.529100
34   1  0.7206  3.938730 22.389300 20.023100
35   1  0.7322  0.280082 16.755400  9.560380
36   1  0.7741  4.262400 19.547900 23.231500
37   1  0.8056  0.650616  2.050150  7.528280
38   1  0.7657  9.315760 10.786200 20.739000
39   1  0.8711  7.318870 18.540700 12.885800
40   1  0.5433  5.482640 20.090000  4.953860
41   1  0.7820 12.765400 20.820700  9.421500
42   1  0.6126  5.406540  4.936110 17.203200
43   1  0.7462  8.109400 22.004700 12.762600
44   1  0.7643  5.954460 17.110100 20.876200
45   1  0.6621  0.331787  6.431030  1.341990
46   1  0.7653 14.161900  4.664260 18.656700
47   1  0.7133  2.838550 19.730200  7.841160
48   1  0.7019  0.652716 12.047600 14.961800
49   1  0.6863 15.891100  9.956170  4.206090
50   1  0.5654  2.735860  4.652110 15.338700
51   1  0.6804  6.689730 17.729300  7.514030
52   1  0.7223  3.983600 16.762300 15.841800
53   1  0.8251  9.915400  7.623740  6.748080
54   1  0.7021  7.166540  7.188480 15.372000
55   1  0.6966  4.301920 15.470300  0.909791
56   1  0.8017 10.002200 16.639600 20.704800
57   1  0.6370 10.547600  8.590740 11.955600
58   1  0.7214  4.173790 12.505800 16.339100
59   1  0.7255  9.007270 20.859000  3.957410
60   1  0.7917  9.719080 22.772900 15.944200
61   1  0.6622 14.947300  6.446880  4.570180
62   1  0.7470 11.435200  5.782200 15.989000
63   1  0.8027  2.113010 10.079000  2.145990
64   1  0.7095  8.336630 22.316100 22.691300
65   1  0.7612  2.716700  3.587680 12.030200
66   1  0.7663 13.682600 22.322700  6.076790
67   1  0.7093  8.549820 16.787400  4.648760
68   1  0.7889 13.151100  8.959960 17.043600
69   1  0.7199  5.538100  0.614772  8.384160
70   1  0.8500  1.551760 22.160700  4.329470
71   1  0.7490  8.330110 13.127900  2.957060
72   1  0.7292  5.701330 19.355700 17.735500
73   1  0.6624 10.882000  3.708370 12.740300
74   1  0.8727  7.565170  6.307510 20.695800
75   1  0.8566 11.590200 15.978200  2.438680
76   1  0.7809 10.816800 18.649200 15.197000
77   1  0.8257 14.623900  1.927280  2.961290
78   1  0.6829 10.316300  2.094390 21.591800
79   1  0.7476 12.559700 17.075300  8.706030
80   1  0.7425  2.652790  9.797250 14.641500
81   1  0.8408  2.683170  6.807420  5.923820
82   1  0.8002  4.698490  9.494820 18.499800
83   1  0.6760 -0.130458 22.030900  9.128370
84   1  0.8502  8.111280  3.311470 15.936800
85   1  0.7762  4.830740 10.816500  6.870680
86   1  0.8263  5.237670 12.762400 20.639500
87   1  0.8306  9.507380 21.862900  7.833480
88   1  0.6155 10.292300  0.368103  1.617660
89   1  0.7408 10.397200  3.517480  3.190930
90   1  0.8677 15.148900 10.003900 12.839000
91   1  0.8309 13.199300  4.355270  7.117290
92   1  0.7477 13.464600 21.813000 14.355100
93   1  0.7635  0.315890 13.991000  6.720000
94   1  0.6556  9.957820  8.628150 18.473800
95   1  0.5035  6.285940 18.289100  2.616040
96   1  0.8293 12.018600  1.922560 19.111500
97   1  0.7621 15.523500  3.093390 11.280400
98   1  0.7497  5.946270  2.640650 21.698700
99   1  0.6872  2.771130 11.997300 10.143800
100  1  0.8374  1.044990 19.091300  1.814580
101  1  0.6203 10.923300  6.230560  9.663660
102  1  0.8174  2.286140  2.535240  3.207970
103  1  0.7663  3.769810 17.759500 11.940100
104  1  0.7553  8.891950 18.709800  0.787283
105  1  0.8151  9.912650 14.503000  9.440980
106  1  0.6722 13.533400  8.390110  2.229470
107  1  0.7190  7.160410  0.677536 19.133900
108  1  0.7736 12.644800 20.334200  2.931220
109  1  0.6171 13.332400  6.402290 11.368300
110  1  0.6658 11.726900  8.198820 22.926900
111  1  0.7617 12.774200 15.397700  6.058320
112  1  0.7170 15.382900 18.681800  6.890940
113  1  0.8394  2.809700  6.466330 22.816400
114  1  0.6430 10.003800 12.353800 13.627100
115  1  0.7840  2.625070 11.217600 22.740900
116  1  0.6394  2.705790 14.531000 12.640900
117  1  0.7013  0.123467  3.048360 23.697900
118  1  0.7286  4.506910  0.589482 16.611300
119  1  0.5310  3.457950 17.157500  4.291980
120  1  0.8280  8.089870 10.393800  9.324950
121  1  0.6501  6.521010  1.638700  0.593446
122  1  0.7427 13.170000  2.086050 15.265900
123  1  0.7739  9.209750 14.507900 24.037200
124  1  0.6902  5.287490 13.177700 11.075600
125  1  0.6766  9.800380  5.097750 23.675500
126  1  0.7934  5.932110  5.488080 11.900600
127  1  0.5688  3.857590 15.234400  6.967710
128  1  0.8069  0.237934  9.704470  9.846730
129  2 -0.6112  0.347290  3.948210 13.949300
130  2 -0.6580 14.332300  3.123770 20.887500
131  2 -0.3977 16.471000 16.581900  4.561910
132  2  0.0014 15.551900 11.574700 23.949000
133  2 -0.6205  5.503670  3.007580  6.834520
134  2 -0.4776  4.905710  7.169330  3.905880
135  2 -0.7004  8.343450 17.570900 15.852100
136  2 -0.5595  4.719060 15.432500 18.360700
137  2 -0.5647 15.141300  1.238650 13.489600
138  2 -0.6628  7.966710  3.065920 20.326100
139  2 -0.4080  2.622390 21.413600 14.108200
140  2  0.0030 15.821200 16.866600 15.891800
141  2 -0.7801  9.358750  1.994690 14.121300
142  2 -0.6376 16.673100  4.805410 21.739400
143  2 -0.4613 16.330200 11.738100  8.070020
144  2 -0.2115 16.517200 22.144100 15.834600
145  2 -0.7536  8.508940 10.157300  1.991790
146  2 -0.2649 13.243000 18.503100 13.544600
147  2 -0.5839 14.892500 18.801900  9.679030
148  2 -0.6767  3.441680  2.068360 14.019100
149  2 -0.6239 11.935100  3.883400 23.259500
150  2 -0.5326  7.533660  7.787690 11.448100
151  2 -0.6745  5.254490  0.286781 22.891100
152  2 -0.3989 14.662300 12.620000 13.997400
153  2 -0.5304 12.193100  6.459980 18.733800
154  2 -0.8392  2.992310 12.725300  6.978200
155  2 -0.7435 12.292700  3.636550  9.842920
156  2 -0.6161  8.948290  5.568280 14.098800
157  2 -0.5816  1.144720 11.957600  4.089630
158  2 -0.4230  9.898770 12.426300 16.823000
159  2 -0.5205  1.919050 21.477600  1.765700
160  2 -0.1326 12.989600 17.655000 17.879200
161  2 -0.6296  2.219800  7.221990 16.392900
162  2 -0.7765  3.787990 18.327300  1.821630
163  2 -0.6272  3.525080 20.143000 10.406300
164  2 -0.2875  9.993340 20.487400 17.810200
165  2 -0.8123  1.511890  7.906720  8.117990
166  2 -0.6038  7.508310 15.196900 20.170900
167  2 -0.7506  8.364600  1.312910  9.853560
168  2 -0.0104 14.700400 18.902900 17.430800
169  2 -0.7600  1.237940  8.357760  4.157080
170  2 -0.0675 13.013500 11.904100 22.310400
171  2 -0.8564  8.903930  2.117360 24.020500
172  2 -0.4976 11.024100 16.820500 24.102100
173  2 -0.5966  2.103250 14.326600 15.684500
174  2 -0.6804  8.314950 12.162800 22.729200
175  2 -0.6187  6.271500  0.314377 13.721000
176  2 -0.0242 12.361800 21.028400 18.640700
177  2 -0.3853  1.168200  8.785900 23.712300
178  2 -0.0362 13.910300 15.197500 15.471400
179  2  0.0040  1.134170 18.836200 18.291800
180  2 -0.5721 15.765000  9.131150  6.717090
181  2 -0.5142  7.198460 19.264100 22.854700
182  2 -0.7050  6.060840  4.159460 14.433100
183  2 -0.4597  7.638350  9.772060  6.919150
184  2 -0.5716  6.869480 11.850800 18.694900
185  2 -0.6851 12.872500 19.858300  7.013600
186  2 -0.5555 15.307400  1.978070 17.901000
187  2 -0.2021  0.628988 16.592700  0.206446
188  2 -0.0668  0.670573 14.641000 19.144900
189  2 -0.5867 15.872800  0.753891  4.970890
190  2  0.0316 16.371800 16.148500 17.688700
191  2 -0.4699 13.390700 17.351500  4.328470
192  2 -0.5428 16.252500  9.439400 15.114300
193  2 -0.5931  8.969960 19.547000  6.386250
194  2 -0.8171  5.343670  9.616670 15.186900
195  2 -0.5178  3.582940 22.902700  6.766850
196  2 -0.6867 12.039800  3.536810 17.300300
197  2 -0.6688 10.400700 14.687000  4.681400
198  2 -0.3167 15.322300  7.668160 17.572900
199  2 -0.6936  1.098530  1.114650 10.638400
200  2 -0.5105 12.573700  0.083176 17.130700
201  2 -0.5633  9.496440 17.242300 12.477900
202  2 -0.6055  7.077200  8.387700 18.688100
203  2 -0.8437  5.842710 15.738300  4.653960
204  2  0.0075 13.698800 18.305000 21.197500
205  2 -0.4114  6.195490 15.143000  9.607800
206  2 -0.7408  3.582840 11.813400 13.275400
207  2 -0.4089 16.125200 23.100600 22.841800
208  2 -0.4067 12.411300 23.092100 21.308000
209  2 -0.6863 11.346100 22.448700  3.815140
210  2 -0.1022  1.134870 18.960600 16.088700
211  2 -0.0421 16.148900 15.362500  1.966350
212  2 -0.5441  3.242210 11.652200 19.205000
213  2 -0.4646  7.044250 20.768700 16.121100
214  2 -0.4936 10.369200 20.966700 24.064300
215  2 -0.5229 14.335900 10.206400 10.335100
216  2 -0.3374 10.427000 15.675300 17.663300
217  2 -0.4845  0.830470 17.635300 12.687600
218  2 -0.7004  2.858060  4.319560  0.187873
219  2 -0.4865  3.283670 13.638200 22.394800
220  2  0.0798 15.540600 14.480800 23.019100
221  2 -0.7218 13.555400 23.170900  1.187610
222  2 -0.6009 10.885400  7.324920  1.495190
223  2 -0.4640  5.163900  7.950500  7.122810
224  2 -0.5356  8.649900  6.007830 17.601000
225  2 -0.5751  4.817200  3.697430  3.510720
226  2 -0.3837 14.868500  6.002640 15.348600
227  2 -0.7226 10.326800 18.465600  3.495120
228  2 -0.0139 15.193900  9.613380 21.811800
229  2 -0.5954  6.888870 21.497300 20.093400
230  2 -0.8325  4.674270  2.270000 18.673800
231  2 -0.6663  0.242756 21.289400  6.692740
232  2 -0.5543  5.099840 19.127100 13.858900
233  2 -0.6360 12.162400  9.392770  4.290770
234  2  0.0489 15.114700 14.846400 20.128300
235  2 -0.1017  1.219110 17.584100 22.573900
236  2 -0.6599 11.055200 13.476300  1.497570
237  2 -0.5930 15.646400  8.182650  0.366826
238  2 -0.7814  9.483350  9.835640 14.559300
239  2 -0.0841 13.682100 15.583900 22.919300
240  2  0.0834 -0.141279 19.314300 20.515300
241  2 -0.7679 15.743900  7.471880 11.601400
242  2 -0.1401  0.328464 22.070900 19.873500
243  2 -0.5903  4.019200 10.228000  3.950100
244  2 -0.4404  6.819370 12.333200  5.297460
245  2 -0.6862  1.654110  4.568080  9.498850
246  2 -0.6007  3.683280  8.629290  0.567230
247  2 -0.4977  6.060010 20.820000  7.863770
248  2 -0.6782  8.165350 22.825100  5.349670
249  2 -0.5926  7.819870  6.041500  7.640090
250  2 -0.5255  8.830190  7.448770  4.279490
251  2 -0.7230 10.899400 21.365400 14.002500
252  2 -0.3137 15.909900 19.958300 24.328400
253  2 -0.6778 10.795500  8.780570  8.960580
254  2 -0.2676  2.506820  8.265370 20.444100
255  2 -0.4438 11.514100  1.181910  7.171080
256  2  0.0125 16.236800 12.216300 20.876100
257  2 -0.7046  7.864370  4.623840  2.200650
258  2 -0.0808 12.755200 13.698300 16.477800
259  2 -0.7757  2.835460 19.633600  5.260590
260  2 -0.4887  3.328720 21.539400 17.799700
261  2 -0.4549 14.236700 12.835900  5.515660
262  2 -0.5431  5.057720 10.052200 10.187100
263  2 -0.4773  4.833130  6.036240 19.577700
264  2 -0.7636  3.176840  6.204190 12.857500
265  2 -0.3046  7.794820 14.018400  8.059530
266  2 -0.2215  1.201260 13.361900  0.617431
267  2 -0.5856 15.737400  4.852810  6.689360
268  2 -0.6649 15.153000 21.536700 11.032000
269  2 -0.5188 12.655200 10.217200  0.249061
270  2 -0.6313  5.303500 15.701500 13.504200
271  2 -0.6195  3.197040  2.697480 21.915500
272  2 -0.0799 12.523700 14.776400 19.115700
273  2 -0.0859 11.859500 19.028000 21.716100
274  2 -0.4258  2.529100  3.513020  6.063500
275  2 -0.7069  0.022573 11.751300 12.016500
276  2 -0.6018  5.073900 12.998900  1.792570
277  2 -0.5672 13.993200  4.425360 13.222400
278  2 -0.5352 12.806800  4.222040  4.222200
279  2 -0.4536  3.580790 18.710500 20.140600
280  2 -0.4597 13.009400 13.804200  8.622120
281  2 -0.6781  9.154700  1.663370 17.624400
282  2 -0.5850 15.541800 20.656100  3.734050
283  2 -0.4969 10.082100 17.127000  8.713760
284  2 -0.1020 14.755300 12.536500  1.472420
285  2 -0.5498  9.565000  3.623210  5.758240
286  2  0.0426 14.439400 21.217100 19.035400
287  2 -0.4189  7.351060 19.865500 10.880300
288  2 -0.1479 15.827200  7.788760 20.940600
289  2 -0.5614 -0.122959  4.227110  3.222090
290  2 -0.6273  4.314120  0.622925  1.966500
291  2 -0.6420  7.932600 12.574100 11.136400
292  2 -0.6802  1.328340 14.138500  9.738230
293  2 -0.7196  8.924770  4.699630 10.864200
294  2 -0.6683  5.795760  5.746310 23.426600
295  2 -0.4258 10.663600 12.363600  6.796790
296  2 -0.4643  7.944890 18.453700 19.681900
297  2 -0.6771 13.473100  6.977680  7.454410
298  2 -0.1136 12.433200 13.070100 20.939400
299  2 -0.5309 14.650800  1.418140  8.612950
300  2 -0.0235 14.859300 12.172700 18.691300
301  2 -0.5931 14.345000  3.769930  0.617015
302  2 -0.0550  0.008203  9.998020 19.051400
303  2 -0.7270  3.223120 16.948300  9.222110
304  2 -0.4862 12.119600  9.887590 19.672000
305  2 -0.7079  0.358198  1.371470  1.453400
306  2 -0.5176 10.114800  5.702990 20.850800
307  2 -0.6602 15.176900 15.971500  8.113690
308  2 -0.3563  2.325190 21.188800 22.950500
309  2 -0.8542  5.177610  3.132450 10.452400
310  2 -0.5124  5.341090  9.148430 21.482400
311  2 -0.4960 11.028200 12.049400 10.989100
312  2 -0.6481  6.947040 21.043100  1.557800
313  2 -0.5777 12.753600  8.169470 14.158900
314  2 -0.6659  6.504440 13.622900 15.379900
315  2 -0.6066 10.426600 21.522100 10.517400
316  2 -0.5170  6.483500 15.122400 23.460800
317  2 -0.6621  2.283690  9.251190 11.600700
318  2 -0.8171  8.996220  8.996960 22.541900
319  2 -0.2465 14.176700 15.939800 11.879100
320  2 -0.7380  8.485400 16.138300  1.730840

