Generated by pymatgen.io.lammps.data.LammpsData

216  atoms

  2  atom types

0.000000 18.096178  xlo xhi
0.000000 18.140645  ylo yhi
0.000000 18.233787  zlo zhi

Masses

1  208.9804
2   78.9600

Atoms

1    1  0.6845  0.170516  0.095774  0.110990
2    1  0.7441  0.362215 17.388900  7.092420
3    1  0.7623  0.046859 17.469600 13.111800
4    1  0.7693  0.425965  6.315840  0.518649
5    1  0.8714  0.600291  5.695230  6.768200
6    1  0.8880 17.665000  6.102740 13.211800
7    1  0.8616  0.578731 11.645000  0.427857
8    1  0.7683  0.589170 11.398100  6.990020
9    1  0.7997 18.005400 11.440200 12.098600
10   1  0.8020  5.250030  0.198065 18.143400
11   1  0.8625  6.684870 18.038700  6.015630
12   1  0.7747  6.514470 18.102800 12.303200
13   1  0.8443  5.869720  6.002490  0.288898
14   1  0.8264  6.213590  5.700920  6.719510
15   1  0.7333  6.951080  5.310280 12.304900
16   1  0.7936  5.731540 12.830400  0.607315
17   1  0.6884  6.287950 11.922800  6.408960
18   1  0.7712  5.948490 11.423400 12.736500
19   1  0.7037 12.408000 17.740700  0.684092
20   1  0.7925 11.883100 17.844800  6.892770
21   1  0.7535 12.177300 17.468400 12.806900
22   1  0.6997 12.686500  6.202860  0.126411
23   1  0.7595 12.103500  5.323130  6.635500
24   1  0.7322 11.870000  6.035540 12.358400
25   1  0.7938 11.659300 11.905700  0.474861
26   1  0.6991 12.443400 11.832200  6.675820
27   1  0.8111 11.761200 11.669500 12.533300
28   1  0.6954 -0.016915  2.851610  3.341060
29   1  0.8027  0.255234  2.532830  9.620700
30   1  0.7318  0.487690  2.854110 16.089800
31   1  0.8468  0.681933  9.027400  3.919410
32   1  0.7892  0.152835  8.673650  9.263330
33   1  0.7219 17.550100  8.510960 16.187900
34   1  0.9124  0.591371 14.852000  3.552050
35   1  0.8070 17.860300 14.553800  9.402010
36   1  0.7657  0.130659 14.386700 15.126000
37   1  0.8073  5.765350  2.403220  3.703900
38   1  0.8442  6.412160  3.077490  9.296350
39   1  0.7373  6.616860  2.690160 14.933600
40   1  0.7421  5.905370  9.302960  4.506180
41   1  0.8172  6.230320  8.869600  9.736110
42   1  0.8412  6.740980  9.638740 15.656600
43   1  0.8429  6.375310 15.006700  2.664250
44   1  0.6119  6.442970 14.973600  9.366520
45   1  0.8914  6.332990 15.455000 15.510900
46   1  0.6451 11.682800  2.717290  4.067170
47   1  0.6823 12.680800  2.523230  9.670030
48   1  0.7198 12.197000  2.831980 15.922800
49   1  0.6958 12.311200  8.705450  3.565930
50   1  0.7209 12.303100  9.036810  9.466710
51   1  0.8317 12.140500  8.664730 15.645800
52   1  0.7840 12.619000 14.817700  3.814420
53   1  0.8353 12.502600 15.003400  9.646260
54   1  0.6962 12.133800 14.390800 16.454600
55   1  0.8115  2.948210 18.082000  3.346810
56   1  0.7658  3.149980 17.808000 10.015300
57   1  0.6534  3.021910 18.135500 15.878500
58   1  0.7521  3.635990  5.478510  4.079380
59   1  0.8093  3.662920  5.378680 10.127500
60   1  0.6957  3.081030  5.885330 15.691600
61   1  0.7126  3.770740 12.193100  2.863720
62   1  0.7445  3.814450 12.111200  9.800760
63   1  0.7966  3.656420 12.386200 15.937200
64   1  0.7937  9.586410 17.744000  3.501170
65   1  0.8680  9.486490 17.893200  9.300760
66   1  0.7188  9.335990 17.752100 15.573200
67   1  0.6954  9.444340  5.965740  3.674280
68   1  0.7704  8.574190  6.605380  9.456730
69   1  0.8750  9.065290  5.996180 16.177900
70   1  0.8198  9.446030 12.133100  3.947120
71   1  0.7821  9.163780 11.979500  9.822280
72   1  0.7475  9.702030 12.450600 15.664000
73   1  0.6239 15.202400 18.121500  4.396110
74   1  0.8069 15.092500 17.598100  9.912870
75   1  0.8285 15.329000 17.538500 15.745200
76   1  0.7895 15.827800  5.942360  3.313390
77   1  0.7399 15.176300  5.607440 10.009800
78   1  0.7399 14.793300  6.168660 15.552600
79   1  0.7830 15.204200 11.415300  3.806950
80   1  0.8903 15.221400 11.778000  9.747850
81   1  0.8042 14.793300 11.645300 15.772100
82   1  0.8829  2.956940  3.549640  0.663003
83   1  0.7099  2.471180  2.520310  6.879690
84   1  0.7233  3.618010  2.992960 12.559500
85   1  0.8199  3.307690  9.017310  0.299579
86   1  0.8178  3.304370  8.693990  7.152470
87   1  0.6450  3.650730  8.021420 12.643100
88   1  0.7191  3.229080 15.529800  0.402801
89   1  0.7552  3.640770 14.735200  6.476560
90   1  0.7247  3.022510 14.721000 12.991100
91   1  0.8149  9.467100  1.939620  0.265010
92   1  0.6729  9.369480  2.346520  5.945990
93   1  0.7664  9.370560  2.634510 12.421800
94   1  0.8566  8.901910  8.909680  0.607865
95   1  0.7105  9.418820  8.460770  6.074550
96   1  0.8252  9.480330  8.830580 13.125600
97   1  0.8493  9.332210 14.560800  0.504966
98   1  0.8526  8.893730 14.684200  6.568030
99   1  0.6806  9.395220 14.560600 11.936600
100  1  0.7516 14.884800  2.446750  0.992354
101  1  0.7713 15.378000  2.878660  7.683390
102  1  0.7860 15.186500  1.946900 13.133700
103  1  0.5874 15.112200  8.640090  1.147420
104  1  0.7748 15.186200  8.102860  7.067780
105  1  0.8271 14.785000  8.422350 12.448900
106  1  0.8282 15.153000 14.519100  1.001070
107  1  0.6630 14.952300 14.892500  7.009400
108  1  0.7598 15.097400 14.764600 13.190000
109  2 -0.9047  2.708470  0.875358  0.295949
110  2 -0.6577  3.418390 17.646100  6.816750
111  2 -0.7687  3.667350  0.241705 12.703000
112  2 -0.8029  3.157280  6.179210  0.671844
113  2 -0.7866  3.147950  5.516870  7.310640
114  2 -0.7316  2.060550  5.088890 12.383500
115  2 -0.9095  3.247920 12.502200  0.431257
116  2 -0.8322  3.641730 11.400800  7.296560
117  2 -0.7237  3.139190 11.522900 12.846700
118  2 -0.6705  8.856870 17.221900  0.671848
119  2 -0.8638  9.191490 17.669500  6.397880
120  2 -0.7887  9.258800 17.946600 12.488100
121  2 -0.6279  8.618690  5.600340  0.697734
122  2 -0.7917  9.014710  5.618320  6.528880
123  2 -0.7647  9.099060  6.308460 13.333700
124  2 -0.7558  9.068300 11.938700  0.219613
125  2 -0.7813  9.503310 11.787600  6.629010
126  2 -0.8371  8.762090 11.704700 12.693800
127  2 -0.7651 15.302300 17.639800  0.254645
128  2 -0.8490 15.225100 17.813000  7.074780
129  2 -0.8675 15.275300 17.595700 12.642000
130  2 -0.7541 15.334400  5.497800  0.547161
131  2 -0.6588 15.628900  5.484150  6.663880
132  2 -0.8428 15.129000  5.607260 12.687200
133  2 -0.6738 15.405500 11.827500  0.971319
134  2 -0.7719 15.257000 11.876400  6.947060
135  2 -0.6694 14.844100 11.565900 12.475700
136  2 -0.8656  3.067960  2.544210  3.457440
137  2 -0.7953  3.051840  2.602530  9.603680
138  2 -0.7380  3.548590  3.515270 16.343500
139  2 -0.6824  3.660670  8.644450  3.087270
140  2 -0.7796  3.360730  8.245880  9.800210
141  2 -0.7263  3.969090  8.869620 15.635400
142  2 -0.7527  3.433550 15.230800  3.524040
143  2 -0.7542  2.859450 14.677900  9.313330
144  2 -0.8144  3.720050 15.038400 15.613100
145  2 -0.7480  8.616700  2.344330  2.930760
146  2 -0.6542  9.245830  2.397660  9.511600
147  2 -0.7724  9.335930  3.007410 16.144700
148  2 -0.7875  9.413580  9.406440  3.377760
149  2 -0.7281  9.410940  9.139310  9.533180
150  2 -0.7694  9.205160  8.940020 16.013100
151  2 -0.6995  9.075240 14.848400  3.316060
152  2 -0.8449  9.257600 14.930300  9.241960
153  2 -0.8710  9.583280 15.178600 15.901600
154  2 -0.6165 14.923900  3.374020  3.955110
155  2 -0.8422 15.712200  2.094370 10.128100
156  2 -0.6652 15.089500  2.598740 16.313300
157  2 -0.7701 15.990800  8.644550  4.160600
158  2 -0.8651 15.539000  8.340750  9.662730
159  2 -0.8621 15.015000  8.997180 15.751300
160  2 -0.6584 16.077700 14.063100  3.489920
161  2 -0.8044 15.284000 14.358500 10.022700
162  2 -0.7435 15.274900 14.686000 16.044900
163  2 -0.7660  0.585504 17.573200  4.492460
164  2 -0.7360  0.265297 17.444400 10.356100
165  2 -0.8587 18.033600 17.011700 15.892300
166  2 -0.7073  0.791308  6.067380  3.957370
167  2 -0.6515 17.708100  5.287270  9.655810
168  2 -0.8136 17.708000  5.874580 15.784600
169  2 -0.6546  0.834113 11.833900  3.521740
170  2 -0.8420 17.841700 11.615800  9.509380
171  2 -0.6943  0.013298 11.566600 15.816300
172  2 -0.7023  5.974730 17.857000  3.571680
173  2 -0.6960  6.620190 17.989300  9.346980
174  2 -0.8178  6.129370 17.893900 15.463900
175  2 -0.7292  6.194420  6.367150  4.083660
176  2 -0.9544  6.099850  5.790440  9.551390
177  2 -0.6854  6.330990  5.200800 15.626000
178  2 -0.8437  6.383390 12.377600  3.675310
179  2 -0.8448  6.377380 11.335000  9.914650
180  2 -0.7215  6.233970 12.378000 16.444600
181  2 -0.8597 12.221000 17.369500  3.649180
182  2 -0.8585 12.187700 17.724700  9.726540
183  2 -0.7856 12.584300 17.273200 15.709200
184  2 -0.7292 12.219900  6.053900  3.082300
185  2 -0.7392 11.310700  5.760730  9.464610
186  2 -0.8281 11.889800  6.263710 15.161700
187  2 -0.8079 12.493000 11.862800  3.519440
188  2 -0.7270 12.374800 12.120500  9.759780
189  2 -0.9234 12.136300 11.597600 16.146500
190  2 -0.7784  0.105486  3.489070  0.441396
191  2 -0.7508 17.799200  3.047270  6.416140
192  2 -0.5764 18.158000  2.768960 13.288800
193  2 -0.8597  0.624181  9.030600  0.859201
194  2 -0.8397  0.575093  8.549830  6.633080
195  2 -0.7138 17.546000  8.778180 12.752300
196  2 -0.6536  0.363151 14.731200  0.920647
197  2 -0.6766  0.246674 14.671500  6.443700
198  2 -0.8045 18.264900 14.705500 12.577300
199  2 -0.5782  5.827580  2.672910  0.517658
200  2 -0.7944  6.286210  2.780090  6.484290
201  2 -0.9331  6.590380  2.798510 11.971100
202  2 -0.6693  6.153130  9.155920  0.167145
203  2 -0.8186  6.012010  8.814540  6.925160
204  2 -0.7496  6.632010  8.273380 13.126700
205  2 -0.8344  5.824470 15.457500  0.109718
206  2 -0.7076  6.416980 15.068400  5.659030
207  2 -0.7271  5.954660 14.359500 12.850200
208  2 -0.7894 12.031000  2.496960  0.684898
209  2 -0.8741 12.255500  2.336870  6.599720
210  2 -0.7795 11.990800  2.252190 12.825500
211  2 -0.7764 11.865200  8.766580  0.226843
212  2 -0.8260 12.457400  7.825940  6.432220
213  2 -0.8885 12.217800  8.856790 12.324700
214  2 -0.8172 12.001100 14.650500  1.329240
215  2 -0.7668 11.704400 14.966700  6.805810
216  2 -0.7816 12.227900 14.050300 12.187700

