Generated by pymatgen.io.lammps.data.LammpsData

6  atoms

2  atom types

0.000000 12.677257  xlo xhi
0.000000 4.161200  ylo yhi
0.000000 3.637286  zlo zhi
11.974859 11.974859 2.021319  xy xz yz

Masses

1  208.9804
2   78.9600

Atoms

1  2  9.324970 1.574026 0.926027
2  2 27.302005 4.608493 2.711259
3  2 11.802562 1.992235 1.172068
4  2 24.824414 4.190283 2.465218
5  1  4.162097 0.702549 0.413322
6  1 32.464878 5.479970 3.223964

