Generated by pymatgen.io.lammps.data.LammpsData

360  atoms

  2  atom types

0.000000 16.677463  xlo xhi
0.000000 21.699897  ylo yhi
0.000000 28.493178  zlo zhi

Masses

1  208.9804
2   78.9600

Atoms

1    1  0.6621  0.245151 14.669400 20.171800
2    1  0.6432  2.293050 20.874100 25.823300
3    1  0.7761 15.623000  7.228760 20.969700
4    1  0.8916  4.335460 15.850500 11.631100
5    1  0.7559  7.984260  9.119040  1.263340
6    1  0.6214  8.740370 16.883400 23.157800
7    1  0.8524 12.046700  2.185060 20.750300
8    1  0.7201  2.332810  2.649420 26.787000
9    1  0.8253  7.830790  4.463620 20.330000
10   1  0.8796  6.563060  6.849630 15.639700
11   1  0.6143  8.488630 11.484700 23.670400
12   1  0.7735 14.666600 18.088100 27.921300
13   1  0.7491  4.957310  0.338558 24.491700
14   1  0.7414  1.818020  3.044370 22.924800
15   1  0.6877  8.988890  1.927000 17.152000
16   1  0.8192 11.200000  6.012800 18.679100
17   1  0.8496 12.811100 11.874000 22.928500
18   1  0.7857  4.153130 20.270300  0.630635
19   1  0.7661  3.788840 16.523400 15.541600
20   1  0.7917  8.957410 21.436600 21.936900
21   1  0.8477 14.498200  6.500270 27.000200
22   1  0.7947  7.550320  8.359280 24.736100
23   1  0.6686 11.291400 17.891500 21.276100
24   1  0.7472  0.385746  4.592530  0.753232
25   1  0.7764 16.643100 12.782300 23.566700
26   1  0.6811  6.573660 18.710000 23.715700
27   1  0.8918  5.089930 10.515900 23.229100
28   1  0.7493  0.129363  9.212570 25.926300
29   1  0.8096 15.147400 16.506700 23.511900
30   1  0.7776  8.163880 16.767400  0.188076
31   1  0.7262 16.413100 20.566200 21.653200
32   1  0.8465  3.591210  7.383960 20.238000
33   1  0.9313  7.196860 11.491600 19.681000
34   1  0.7979  5.702910 10.855700 27.413800
35   1  0.5974  9.158560 12.903900 26.885300
36   1  0.7123 13.063300 21.679700 22.925400
37   1  0.8267  7.088450  1.415620 27.494800
38   1  0.7940  6.259410  4.251990 23.905900
39   1  0.7717  9.107950  7.044500 28.006300
40   1  0.6796  9.354750  5.414650 22.968500
41   1  0.8177 11.839600 10.806900 27.124100
42   1  0.8444 13.164200 14.516500 28.016600
43   1  0.8544 11.002200 18.263300 25.319900
44   1  0.8371 14.261800  3.456410 24.372500
45   1  0.7146 15.050900 21.416000 25.926400
46   1  0.8024 13.118400  7.254340 23.688700
47   1  0.8542  2.581000  1.180530  3.956190
48   1  0.7130  1.659200  5.907860 24.417100
49   1  0.8554  1.299190 15.791300  7.173850
50   1  0.8182  7.037880  1.060460  4.195760
51   1  0.8845  2.656250  9.480570  1.285570
52   1  0.7670 16.075500 12.331300  0.044921
53   1  0.8285  1.849940 19.012700  4.831620
54   1  0.8632  9.531300 15.248900  5.341580
55   1  0.8078  4.627790  4.434670  1.111380
56   1  0.8289  3.904400  4.018860  5.976330
57   1  0.8046  3.782510  7.312690 26.964300
58   1  0.7813  0.089052 11.865400  5.255680
59   1  0.9033 14.150300  9.873960  2.058630
60   1  0.7434 14.471000 20.484400  2.801070
61   1  0.8437 11.065900 18.974300  1.897460
62   1  0.7935  5.620440  7.654000  3.785750
63   1  0.7415 11.023700  3.915620 26.282700
64   1  0.8706 15.882200 15.838300  3.673350
65   1  0.7028 16.412300  1.447140  1.012000
66   1  0.6930  2.879300 19.101900 10.110300
67   1  0.7946 10.480400  0.212977 25.369600
68   1  0.7096  9.449750  7.178610  3.071430
69   1  0.8393  5.859220 12.517800  2.242020
70   1  0.7290  5.237030 15.340800  4.553210
71   1  0.7985  8.438740  0.215245  9.801700
72   1  0.7334 13.352300  5.899260  3.129890
73   1  0.8179 16.470500 18.602900 10.429300
74   1  0.7897  9.889340 21.048200 14.263600
75   1  0.7334 14.477800  9.336900  8.543160
76   1  0.8392 15.034900 10.925400 16.020300
77   1  0.7299  4.715910 19.381000  6.802490
78   1  0.8465 12.300000 16.202100  7.394760
79   1  0.8118  7.436410 19.239300  4.101380
80   1  0.8436  0.169253  7.282600  4.213510
81   1  0.7816  8.432340 10.825500  7.476350
82   1  0.8098  3.092160 11.649900  9.026370
83   1  0.8416  7.065190  3.114120 14.168900
84   1  0.5926 13.977900  2.512440  2.883360
85   1  0.8581 15.998600  9.979350 12.063500
86   1  0.7928 10.424800  2.018370  5.838660
87   1  0.7719 11.383300  5.802840  7.128800
88   1  0.8045 11.877500 11.861600  9.852460
89   1  0.8399 13.378300 13.243900  4.448710
90   1  0.8258 13.056200 21.191300  7.224140
91   1  0.8101 10.076200 19.675400  7.323940
92   1  0.7583  9.548030  3.162480  1.604190
93   1  0.8261 10.144800 11.709600  2.431690
94   1  0.6557  0.382129 12.921500  8.692100
95   1  0.7378  4.101080  0.234267  7.649850
96   1  0.7835 15.629900 14.553500 11.742200
97   1  0.8636 11.502100 19.857100 10.584000
98   1  0.8825 16.051700  0.654885 10.177200
99   1  0.7311 15.632700  5.853950 13.811800
100  1  0.8458 11.986800  7.185560 10.608200
101  1  0.7804  2.832450 12.597400 16.986000
102  1  0.7299  4.190160 20.615500 12.592000
103  1  0.7122  3.821740  1.872100 10.382900
104  1  0.7665 14.920000  4.741230  7.125390
105  1  0.7257 15.094600  4.764130 10.608700
106  1  0.7504  1.840070  7.675340 13.813500
107  1  0.8081  6.694510 16.688300 18.819800
108  1  0.7266 12.559700 12.416900 13.182200
109  1  0.8513 16.363900  1.986870  6.811400
110  1  0.8148  3.970360  7.806310  7.490980
111  1  0.8477  4.781940  8.981020 11.514300
112  1  0.8459  7.280400 14.438500  8.108780
113  1  0.8612  6.760460 17.998000  9.443710
114  1  0.7566 14.120000 19.634000 18.337500
115  1  0.7732 12.305000  2.054630 14.986000
116  1  0.7666  1.391510  6.209530  9.907520
117  1  0.8057 10.500600  2.931390  9.286010
118  1  0.8786  8.412170  9.325190 12.394200
119  1  0.7146 10.523700  5.439850 15.308300
120  1  0.7334  8.008910  7.406470  7.566920
121  1  0.6468  1.224360 17.612300 18.114800
122  1  0.8739  1.874690 12.038600 13.357500
123  1  0.8069 15.778500  7.279700 17.092600
124  1  0.7936 14.328200 14.558000 15.452300
125  1  0.8595  3.608940 14.048300 22.004600
126  1  0.8186  6.020210 19.038800 15.268700
127  1  0.5498 10.424900 20.655000 18.178600
128  1  0.7671  3.954500  4.487400 12.359400
129  1  0.8219  1.268090 10.263800 19.918200
130  1  0.7868  3.280670 17.933400 22.010500
131  1  0.7525  6.849040 14.643600 25.598000
132  1  0.6236 11.131500 17.006500 17.607300
133  1  0.7988  1.314000 21.456700 18.471500
134  1  0.8005  7.489370  4.601570 10.552400
135  1  0.7518 12.668400  8.675130 14.882000
136  1  0.8234  7.056860 12.364200 15.687000
137  1  0.8596  8.925050 15.029600 13.643300
138  1  0.7579  9.708400  9.393120 16.826500
139  1  0.8036  4.624960 21.214700 19.825800
140  1  0.9044  3.091020  4.268920 19.433400
141  1  0.7089 15.851800  2.966470 21.651000
142  1  0.8149 10.562400 10.092500 20.331000
143  1  0.8657 11.691500 13.473600 19.440100
144  1  0.6892 12.343900  3.409930 11.879500
145  2 -0.7220  8.243690 17.254700 25.548900
146  2 -0.4243 15.873700 18.383300  5.084070
147  2 -0.6554 12.695700  1.646980 25.997800
148  2 -0.5166 15.041300  9.365350 22.412000
149  2 -0.5818  2.085100  0.571688 22.508300
150  2 -0.1037  3.038320 13.287700 26.869400
151  2 -0.5379  1.502160 20.580900  2.514140
152  2 -0.4685  5.760570  4.426830 26.661800
153  2 -0.6567 15.234600 13.321300  2.346020
154  2 -0.0589  2.396990 16.532300 26.045200
155  2 -0.5012  6.123420 14.935000 27.915700
156  2 -0.3744  9.428610 19.559900 28.187500
157  2 -0.5562  8.236810  5.267690 13.457300
158  2 -0.7400  8.716410 10.122600 26.739400
159  2 -0.6916 12.873600  4.206310 22.359400
160  2 -0.4712 10.684700 12.752000  5.095250
161  2 -0.4087 15.971500 15.426500 26.752300
162  2 -0.4841 12.459800  8.179080 27.384000
163  2 -0.8620  9.695320 19.495000 23.353500
164  2 -0.5110  4.702240  2.594460  3.160300
165  2 -0.4034 13.201800 11.247400 20.062900
166  2 -0.6345  2.712170  9.763610 27.113800
167  2 -0.6489 13.431900 20.282100  0.192771
168  2 -0.5624 16.129300  4.081820  4.132160
169  2 -0.4750 10.445400 14.523400  0.787705
170  2 -0.5484 15.013400  3.387940 27.313000
171  2 -0.5282  2.387770 11.600200 22.880100
172  2 -0.5119 14.059700 17.514700  2.218360
173  2 -0.5536  4.480560  1.506610  0.249751
174  2 -0.5598 11.468100 16.176600 23.714100
175  2 -0.6996  1.730770  2.787670  1.644760
176  2 -0.5965  1.338160 15.315900 22.959600
177  2 -0.5089  4.366350  8.342390 24.380600
178  2 -0.6806  5.417880  9.669880  1.173480
179  2 -0.6092  5.775000 20.106800 26.288500
180  2 -0.6775  1.160910 21.282700 27.986800
181  2 -0.5837  6.418280  7.767360 27.103000
182  2 -0.6109 15.369100  7.176170  1.858380
183  2 -0.7253  5.804370 12.416900 25.035700
184  2 -0.6396 12.771900 11.892100  0.901838
185  2 -0.5574  2.232540 16.121900  4.885550
186  2 -0.4692  3.007120  6.213170  4.506680
187  2 -0.5098  6.864800 21.072100  1.753310
188  2  0.0288  3.944100 16.234900 27.584500
189  2 -0.4744  7.628870  3.650930  3.700700
190  2 -0.6548  9.500830  6.586350 25.222100
191  2 -0.6853 10.292500  3.564570 19.897000
192  2 -0.0506  2.523910 13.652800  0.117805
193  2 -0.3818 13.871700 17.024100 16.300000
194  2 -0.5138  6.800020  6.463730 22.123100
195  2 -0.5801  9.163930  7.476390 18.912700
196  2 -0.4654  1.607950  8.529500 22.735700
197  2 -0.2888  0.504492 16.346100  1.113900
198  2 -0.5222  9.234950 11.469000 14.385000
199  2 -0.6159  0.369346  2.218420 25.197000
200  2 -0.5204  3.666480  5.734340 22.838500
201  2 -0.2654  0.621251  4.871260 18.054600
202  2 -0.4221  5.516580  4.913240 19.154000
203  2 -0.5262  6.428350 12.961000 21.828100
204  2 -0.4129  4.801700 16.400900 24.385900
205  2 -0.4387  4.381560  2.944070 21.370200
206  2 -0.7383 10.670100  1.714600 22.756000
207  2 -0.4818  7.674250  1.446030 19.546400
208  2 -0.2185  2.001820 18.369600 14.495100
209  2 -0.6461  7.362020  9.637670 21.987500
210  2 -0.6336 12.251900 13.227200 26.160800
211  2 -0.6025  1.126960 18.900500 23.229000
212  2 -0.7221  4.030790  2.740050 24.852700
213  2 -0.5432 11.398200  7.695840 21.390500
214  2 -0.6411  4.360550 18.095500 17.509900
215  2 -0.5868  8.026760  1.972410 24.834900
216  2 -0.6398  0.948445  5.550370 20.815000
217  2 -0.5718  0.803823 14.240300 17.154400
218  2 -0.4475 12.892500 12.924000  7.600100
219  2 -0.3387  3.722950  9.962070  4.219940
220  2 -0.7554 15.783800  7.392370 10.782000
221  2 -0.3969  1.383640 20.008700 12.327900
222  2 -0.5660  9.703660 15.957500  8.001220
223  2 -0.5684  2.324190 12.791000  6.680890
224  2 -0.6235  9.114650 18.971000  9.781470
225  2 -0.6249  6.207150  6.218550  6.285590
226  2 -0.2817  5.049460 12.508800 11.075500
227  2 -0.4942  4.355010  7.592460 14.402800
228  2 -0.4981  9.147560 18.369600 15.142900
229  2 -0.5250 15.738300 21.220000  7.629920
230  2 -0.5307  4.368380 16.164300  7.815090
231  2 -0.8647 13.179200  5.157030  8.962430
232  2 -0.2790  6.844270 11.232700  4.883910
233  2 -0.6517  6.949390 17.868300  6.559390
234  2 -0.3275 11.478600 10.371600  7.558940
235  2 -0.3791 12.833000 15.140800 12.405100
236  2 -0.4768 12.633500 20.410300 16.134000
237  2 -0.6233 13.224900  2.091430  5.831830
238  2 -0.5764  1.094240 10.791200 15.638500
239  2 -0.6814  2.157450  1.826880  6.749580
240  2 -0.6839  8.105450 20.752700  5.925080
241  2 -0.6608  1.661870 18.402000  7.555130
242  2 -0.5909  2.379760  8.584470  9.416470
243  2 -0.6661 11.276500  4.537540  4.338250
244  2 -0.5077  9.709830  9.451520 10.011800
245  2 -0.4224  1.445110  9.399060  6.833060
246  2 -0.7731  7.847130 11.761200  0.579676
247  2 -0.8121 10.986500  0.359932  8.716160
248  2 -0.5467  0.624876  5.654910  7.096410
249  2 -0.5933  6.309120  8.746730  9.445040
250  2 -0.4360  9.200880 12.740800  9.267270
251  2 -0.3676 11.006400  8.393750  5.947480
252  2 -0.5375  8.920870 17.096300  3.315760
253  2 -0.4722  8.154960 20.351700 12.635700
254  2 -0.4164  4.674650 17.588800  2.280400
255  2 -0.5993  1.289810  4.906900 13.405200
256  2 -0.6118  9.161820  3.745730  7.379830
257  2 -0.4180  5.776760 12.466100  8.036710
258  2 -0.5437 15.497000 15.521400  8.866550
259  2  0.0574 15.717600 21.335600 14.683500
260  2 -0.6796  6.075560  2.255810 11.550600
261  2 -0.6033 11.214700  9.231510  2.449030
262  2 -0.4885 14.306700 10.561500  5.261850
263  2 -0.5575 13.563400  1.831540  9.178830
264  2 -0.5631 14.028100  6.908130  5.388640
265  2 -0.6840 15.624100 14.497400  5.799770
266  2 -0.7852 15.145800 12.138800 13.550600
267  2 -0.7069  0.702359  6.175110 26.984900
268  2 -0.5807  7.896410  9.183780  4.205700
269  2 -0.3331  2.913980 12.141700  1.706070
270  2 -0.6056  7.746940 14.158600  4.002490
271  2 -0.5691 12.231900 16.947600 27.381600
272  2 -0.5360  6.326310  1.741200  7.643730
273  2 -0.7304  7.587390  6.457250  1.492160
274  2 -0.6110  2.908420  6.772290  1.438110
275  2 -0.4089 14.451100 19.941500 11.113600
276  2 -0.4673 11.097700 17.891900  5.586400
277  2 -0.4324  9.757730  0.471249 27.875900
278  2 -0.7544  4.607510 20.750700  4.817580
279  2 -0.5638  8.653220  3.934320 27.718800
280  2 -0.3739 11.925700 15.558500  3.488640
281  2 -0.6963  2.003430 10.000500 11.830000
282  2 -0.1814  4.874180 12.651500  5.903250
283  2 -0.6049 13.827800 18.772600 24.799700
284  2 -0.5886 16.145000  1.006220  4.022730
285  2 -0.5930 12.309500  5.395790 28.318800
286  2 -0.5368  0.250917 10.140900  2.760060
287  2 -0.5010 10.683800  0.977416  3.105850
288  2 -0.5947 15.262400  9.756630 28.286500
289  2 -0.5370 14.793100 11.277900 25.348600
290  2 -0.4737 11.123000 14.564400 15.221800
291  2 -0.4530  5.566120 14.230300 14.012600
292  2 -0.5053  2.286370 14.436500 14.335000
293  2 -0.6074  9.575540 11.905600 18.448500
294  2 -0.2266  4.677420  1.924170 17.861700
295  2 -0.5986 14.179400 18.203300 21.103500
296  2 -0.8000 15.711100  8.506170 14.465100
297  2 -0.1422  3.572910  9.116600 16.923600
298  2 -0.6032 12.390500  8.390230 17.585900
299  2 -0.8054  2.423180 19.472400 20.091300
300  2 -0.6161 14.596900 13.644800 22.213200
301  2 -0.6827  6.137520 21.166100 22.388000
302  2 -0.4324  4.958400  4.721010 14.913100
303  2 -0.5207 11.537200  9.049040 24.320400
304  2 -0.6369  5.349820 16.527100 21.190600
305  2 -0.4746  6.829510  9.923030 17.106300
306  2 -0.5561 14.965400  0.390227 19.710600
307  2 -0.7640 15.172200  1.135410 23.595000
308  2 -0.5118  1.249400  2.365790 19.689000
309  2 -0.7798 15.329200  5.785170 24.615600
310  2 -0.3940  4.583990 10.223900 20.212500
311  2 -0.8084 11.692700 20.484900 20.467200
312  2 -0.1032 12.557200 18.164200 13.384800
313  2 -0.4466 16.599500 19.452800 16.914700
314  2  0.0093  0.748418  1.349980 15.553700
315  2 -0.4239 13.017800  1.896730 17.351800
316  2 -0.4613  6.160110 10.080200 13.718900
317  2 -0.5988  2.069210 16.540800 10.883300
318  2 -0.4347  5.424610 13.303500 18.491900
319  2  0.0942 14.670500 19.432000 14.175200
320  2 -0.0734  3.362680  1.141070 16.438900
321  2 -0.5048  7.371200 15.589900 16.615100
322  2 -0.2522  4.633950  7.606540 17.942700
323  2 -0.4874  6.525770 15.293400 10.648200
324  2 -0.2672 10.584900 14.776100 11.341400
325  2 -0.5612 12.933800 18.448500  8.575550
326  2 -0.6869  2.016780 21.609600  9.299380
327  2 -0.5871  8.308550  4.588740 17.094000
328  2 -0.5754 13.048300 15.702400 19.303200
329  2 -0.4782 15.242000  9.620560 18.319600
330  2 -0.5478 12.667000 12.042300 16.606200
331  2 -0.4197  8.290660 14.643300 19.522000
332  2 -0.7887  9.693370  2.341560 14.619100
333  2 -0.6600  9.894660  5.984920  9.764710
334  2 -0.5646 13.083200  5.035750 16.019200
335  2 -0.1900  2.811230 20.416500 15.155400
336  2 -0.4482  5.652030 21.604000 14.895200
337  2 -0.6111  7.578200 19.716700 18.256700
338  2 -0.6955  5.244920 17.857400 13.092000
339  2 -0.7482 12.871500  5.891320 12.573100
340  2 -0.6891  2.073000 13.051600 19.885700
341  2 -0.8819  5.419990 20.053200  9.275130
342  2 -0.3390  2.371490  1.789610 12.715200
343  2 -0.0446  1.800500  3.747250 15.983500
344  2 -0.6071  0.637440  3.191440  9.762320
345  2 -0.3770 14.435200  5.188500 19.251600
346  2 -0.5961  1.757400 13.424900 11.080400
347  2 -0.6634 10.386500 12.629400 21.837300
348  2 -0.5820  3.872250  5.120400  8.946280
349  2 -0.2202  8.128210 12.108900 12.005900
350  2 -0.6054  5.696350  6.409850 11.482400
351  2 -0.6547  9.976670  8.004950 14.238700
352  2 -0.7406 14.916700 11.403000 10.297800
353  2 -0.3211 15.971200 16.161200 13.819200
354  2 -0.4588 12.181600 21.652000 13.056500
355  2 -0.4543 11.860000 20.382200  4.420360
356  2 -0.6181  9.856480  1.910740 11.471900
357  2 -0.5348  1.263280  8.254270 18.470000
358  2 -0.6189 12.684100  9.571770 12.379200
359  2 -0.0076 15.565300  3.069270 17.396800
360  2 -0.4231 15.113400  2.064160 12.383500

