Generated by pymatgen.io.lammps.data.LammpsData

320  atoms

  2  atom types

0.000000 16.866997  xlo xhi
0.000000 23.170319  ylo yhi
0.000000 24.472453  zlo zhi

Masses

1  208.9804
2   78.9600

Atoms

1    1  0.8475  0.972938 11.177600 10.628900
2    1  0.8062  0.909904 11.095600 22.713800
3    1  0.8409  0.950852 22.888300 10.603800
4    1  0.8356  0.891031 22.829200 22.865800
5    1  0.8469  5.107990 11.251700 10.635900
6    1  0.8422  5.055400 11.334300 22.792500
7    1  0.8320  4.995270 22.864700 10.574000
8    1  0.8580  5.225450 22.864200 22.744700
9    1  0.8469  9.271750 11.334800 10.704400
10   1  0.8213  9.373930 11.264900 22.732000
11   1  0.8452  9.403830 22.780700 10.548700
12   1  0.8408  9.256500 22.663300 22.834400
13   1  0.8367 13.674700 11.202700 10.766000
14   1  0.8361 13.540300 11.349500 22.836000
15   1  0.8290 13.510300 22.807300 10.648600
16   1  0.8611 13.640600 22.906700 22.917100
17   1  0.8331  3.035530  0.441286  1.675390
18   1  0.8148  3.068480  0.459766 14.135100
19   1  0.8361  2.903700 12.005800  1.684440
20   1  0.8479  3.077450 11.970800 14.034800
21   1  0.8618  7.225720  0.298477  1.805370
22   1  0.8298  7.201510  0.394184 13.950000
23   1  0.8446  7.320940 11.989800  1.774080
24   1  0.8456  7.274960 12.027900 14.012600
25   1  0.8521 11.443700  0.340478  1.766270
26   1  0.8247 11.485400  0.513612 13.892500
27   1  0.8309 11.366200 11.892400  1.706910
28   1  0.8291 11.457800 12.049100 14.003400
29   1  0.8489 15.742000  0.433148  1.679060
30   1  0.8291 15.587400  0.480714 14.034600
31   1  0.8127 15.735000 12.025900  1.722610
32   1  0.8298 15.653900 12.041900 14.075800
33   1  0.8486  3.119480  5.648200  7.730420
34   1  0.8446  2.948170  5.434170 19.908300
35   1  0.8441  3.059880 16.995000  7.861550
36   1  0.8461  3.041380 17.026600 19.871300
37   1  0.8378  7.185060  5.474570  7.709080
38   1  0.8324  7.276950  5.413160 19.904100
39   1  0.8480  7.095090 16.987900  7.678440
40   1  0.8265  7.251080 17.078100 19.956400
41   1  0.8334 11.445400  5.480230  7.789910
42   1  0.8249 11.278900  5.515250 20.023300
43   1  0.8333 11.364500 17.046000  7.770070
44   1  0.8501 11.377800 16.962200 20.010000
45   1  0.8161 15.619900  5.392440  7.695900
46   1  0.8557 15.744700  5.494820 19.978500
47   1  0.8322 15.573700 17.019300  7.847480
48   1  0.8486 15.647900 16.938600 19.939400
49   1  0.8227  0.995052  6.229260  4.348550
50   1  0.8383  0.944071  6.186460 16.576400
51   1  0.8337  0.913074 17.731400  4.361420
52   1  0.8128  0.892204 17.696400 16.632500
53   1  0.8195  5.134070  6.284570  4.354230
54   1  0.8329  5.050620  6.093680 16.460000
55   1  0.8542  5.078140 17.659100  4.392770
56   1  0.8422  5.207830 17.590500 16.581300
57   1  0.8317  9.298280  6.245840  4.397470
58   1  0.8388  9.401920  6.300770 16.552100
59   1  0.8463  9.295740 17.809500  4.457210
60   1  0.8346  9.314130 17.690900 16.522100
61   1  0.8081 13.496700  6.274560  4.295380
62   1  0.8266 13.440200  6.302430 16.536400
63   1  0.8302 13.542400 17.717600  4.407360
64   1  0.8571 13.616400 17.764300 16.558000
65   1  0.8248  1.034230  1.890520  5.764510
66   1  0.8385  1.012070  1.913260 18.257000
67   1  0.8427  0.992603 13.621000  5.902610
68   1  0.8294  0.874758 13.632200 18.051900
69   1  0.8381  4.993970  2.050270  5.966480
70   1  0.8265  5.130130  1.855210 18.365000
71   1  0.8314  5.059810 13.702900  6.079310
72   1  0.8529  5.072620 13.367100 18.172700
73   1  0.8282  9.330020  2.053280  6.053840
74   1  0.8244  9.403080  1.972830 18.237400
75   1  0.8467  9.172900 13.600500  5.881520
76   1  0.8364  9.423750 13.581800 18.220500
77   1  0.8225 13.389300  1.990930  5.977270
78   1  0.8445 13.462100  1.834450 18.268200
79   1  0.8395 13.595000 13.562700  5.964410
80   1  0.8406 13.614100 13.571200 18.267000
81   1  0.8314  3.100450  9.590340  6.313060
82   1  0.8192  3.086020  9.597600 18.443900
83   1  0.8197  3.032810 21.342700  6.249070
84   1  0.8344  2.977920 21.143700 18.574100
85   1  0.8509  7.161350  9.662100  6.201270
86   1  0.8499  7.150960  9.648320 18.480200
87   1  0.8272  7.250800 21.197200  6.305850
88   1  0.8305  7.305400 21.087900 18.466700
89   1  0.8302 11.377200  9.569410  6.251900
90   1  0.8297 11.320100  9.684970 18.539500
91   1  0.8292 11.362700 21.206700  6.330370
92   1  0.8314 11.502300 21.265700 18.495100
93   1  0.8181 15.670700  9.722190  6.262250
94   1  0.8207 15.654800  9.613330 18.623700
95   1  0.8211 15.781700 21.292300  6.266340
96   1  0.8425 15.571500 21.212400 18.552700
97   1  0.8444  3.024620  7.836960 12.358200
98   1  0.8328  3.036330  7.829780  0.163422
99   1  0.8220  3.053580 19.398900 12.378900
100  1  0.8276  3.069120 19.301300  0.287430
101  1  0.8341  7.182220  7.868390 12.347200
102  1  0.8518  7.201770  7.658150  0.154537
103  1  0.8387  7.178630 19.195800 12.492600
104  1  0.8014  7.181520 19.361300  0.269962
105  1  0.8298 11.432000  7.797570 12.315400
106  1  0.8436 11.423400  7.679870  0.121294
107  1  0.8372 11.374300 19.330100 12.577200
108  1  0.8100 11.556500 19.281200  0.227299
109  1  0.8221 15.545500  7.638990 12.419000
110  1  0.8218 15.723800  7.783170  0.164024
111  1  0.8317 15.586700 19.204200 12.530600
112  1  0.8121 15.591600 19.349900  0.203794
113  1  0.8374  1.037900  3.921390 24.298600
114  1  0.8358  0.911669  3.835200 12.114100
115  1  0.8249  0.935092 15.405400 24.182500
116  1  0.8439  0.968444 15.490100 12.168800
117  1  0.8420  5.084150  4.019440 24.223100
118  1  0.8437  5.222450  3.811760 12.199000
119  1  0.8299  5.029190 15.538100 24.366600
120  1  0.8449  5.145020 15.181800 12.247700
121  1  0.8329  9.347660  3.805490 24.200500
122  1  0.8390  9.322590  3.940050 12.066000
123  1  0.8329  9.306060 15.528900 24.204600
124  1  0.8238  9.332600 15.386000 12.080500
125  1  0.8271 13.391000  3.946000 24.222200
126  1  0.8487 13.608200  3.693760 12.098400
127  1  0.8149 13.522900 15.535200 24.264400
128  1  0.8353 13.547800 15.314900 12.347900
129  2 -0.4794  1.012290  3.690380  8.310800
130  2 -0.5208  0.916704  3.600180 20.683700
131  2 -0.5019  0.923883 15.165700  8.413870
132  2 -0.5206  0.995173 15.196600 20.516300
133  2 -0.5186  5.049500  3.707290  8.388440
134  2 -0.5284  5.018980  3.666340 20.693300
135  2 -0.5533  5.086120 15.215000  8.484060
136  2 -0.5114  5.135660 15.148000 20.481100
137  2 -0.5388  9.287950  3.741600  8.442280
138  2 -0.5448  9.235860  3.572590 20.822100
139  2 -0.5304  9.170380 15.225200  8.282820
140  2 -0.5425  9.306570 15.235900 20.750200
141  2 -0.5248 13.426200  3.532040  8.412090
142  2 -0.5160 13.474000  3.797930 20.521500
143  2 -0.4847 13.459200 15.098300  8.569130
144  2 -0.5394 13.569300 15.274700 20.663400
145  2 -0.5526  3.052650  8.025200  3.741070
146  2 -0.5219  3.027230  7.996110 15.796400
147  2 -0.5317  3.025900 19.498100  3.734250
148  2 -0.5173  3.166730 19.449000 16.026300
149  2 -0.5300  7.288260  8.085950  3.670320
150  2 -0.4875  7.176010  8.132120 15.897000
151  2 -0.5466  7.156470 19.505300  3.840650
152  2 -0.5250  7.157080 19.630100 15.874100
153  2 -0.5370 11.359400  8.050950  3.586310
154  2 -0.5244 11.288200  8.174250 15.834300
155  2 -0.5356 11.437800 19.528200  3.773920
156  2 -0.5251 11.420000 19.551900 15.886700
157  2 -0.5214 15.712300  8.105850  3.642400
158  2 -0.5085 15.612800  8.067470 15.928500
159  2 -0.5218 15.643400 19.578000  3.729040
160  2 -0.5128 15.623800 19.713800 15.911500
161  2 -0.5626  3.020110  9.456260 10.029700
162  2 -0.5247  3.169950  9.311830 22.108500
163  2 -0.5357  2.901700 21.051500  9.890200
164  2 -0.4960  3.067510 20.906300 22.293700
165  2 -0.5349  7.239610  9.512540  9.967480
166  2 -0.4914  7.148120  9.371740 22.206600
167  2 -0.4928  7.237880 20.979900 10.027700
168  2 -0.5350  7.157200 20.923100 22.173200
169  2 -0.5205 11.420900  9.576420 10.031800
170  2 -0.5107 11.607500  9.396460 22.152000
171  2 -0.5313 11.374400 21.034900 10.017500
172  2 -0.5086 11.524600 21.086000 22.180200
173  2 -0.5388 15.795900  9.463550  9.986810
174  2 -0.5260 15.530200  9.350370 22.081800
175  2 -0.4924 15.828000 21.003200  9.963950
176  2 -0.5325 15.524600 21.075700 22.210900
177  2 -0.5340  0.887883  2.318920  2.337530
178  2 -0.5143  0.838936  2.363800 14.753500
179  2 -0.5400  0.875620 13.781000  2.406560
180  2 -0.5244  1.000660 13.962400 14.753200
181  2 -0.5116  5.199470  2.172430  2.276070
182  2 -0.5300  5.121660  2.341110 14.763000
183  2 -0.5061  5.136480 13.702300  2.401220
184  2 -0.5384  5.157650 13.780100 14.752700
185  2 -0.4968  9.281130  2.142730  2.263290
186  2 -0.4939  9.399630  2.386200 14.700500
187  2 -0.5163  9.314330 13.790600  2.296120
188  2 -0.5238  9.234990 13.863300 14.708900
189  2 -0.4983 13.452200  2.184480  2.359430
190  2 -0.5394 13.524100  2.349210 14.619400
191  2 -0.5050 13.511000 13.785900  2.342300
192  2 -0.5481 13.578700 13.812300 14.819900
193  2 -0.5226  1.065170 11.028800  4.748110
194  2 -0.5155  0.942806 10.921500 16.831200
195  2 -0.5497  0.955622 22.524500  4.502180
196  2 -0.5311  0.857951 22.461400 17.065700
197  2 -0.5002  5.165160 10.832900  4.666730
198  2 -0.5387  5.083560 10.889700 16.850500
199  2 -0.5124  5.170270 22.495100  4.597080
200  2 -0.5179  5.110810 22.553600 16.971200
201  2 -0.5274  9.111820 10.999800  4.669090
202  2 -0.5235  9.302220 10.941000 16.993100
203  2 -0.5211  9.405250 22.517200  4.721760
204  2 -0.5046  9.380670 22.464100 16.807400
205  2 -0.5222 13.478500 10.979900  4.669390
206  2 -0.5155 13.528300 10.981800 17.021500
207  2 -0.5037 13.452000 22.443600  4.706130
208  2 -0.5546 13.528500 22.566800 16.966200
209  2 -0.5353  3.048850  0.755206  7.531900
210  2 -0.5194  2.991580  0.709648 20.010500
211  2 -0.4973  2.973960 12.408000  7.682580
212  2 -0.5076  3.016370 12.294400 19.829100
213  2 -0.5008  7.063590  0.708436  7.640010
214  2 -0.5136  7.214580  0.586644 19.855900
215  2 -0.4948  7.122450 12.330300  7.612070
216  2 -0.5146  7.240130 12.248900 19.861500
217  2 -0.5215 11.267100  0.682361  7.690690
218  2 -0.5240 11.354300  0.816121 19.892300
219  2 -0.4550 11.288300 12.309400  7.606980
220  2 -0.5160 11.466400 12.448700 19.957000
221  2 -0.4924 15.821700  0.710832  7.660700
222  2 -0.5038 15.542400  0.761689 19.902300
223  2 -0.4875 15.586300 12.444300  7.628210
224  2 -0.4929 15.695500 12.393300 20.000300
225  2 -0.5577  3.086180  5.075460  1.339740
226  2 -0.5297  3.112280  5.091110 13.583200
227  2 -0.5370  3.008940 16.595200  1.512900
228  2 -0.5254  3.080900 16.682100 13.660000
229  2 -0.5152  7.263340  5.112240  1.403930
230  2 -0.5343  7.253410  5.242740 13.660900
231  2 -0.5094  7.205510 16.578000  1.512490
232  2 -0.5390  7.254830 16.624500 13.726700
233  2 -0.5207 11.333200  5.001670  1.456860
234  2 -0.5265 11.484900  5.104790 13.516800
235  2 -0.5251 11.473500 16.713200  1.464670
236  2 -0.5438 11.318300 16.629000 13.712400
237  2 -0.5143 15.567200  5.140220  1.321890
238  2 -0.5427 15.618200  5.159080 13.636400
239  2 -0.5245 15.697900 16.724100  1.473860
240  2 -0.5657 15.676700 16.715500 13.744600
241  2 -0.4848  0.796808  6.488430 10.725700
242  2 -0.5113  1.026690  6.552860 22.878600
243  2 -0.4881  0.845983 17.990000 10.701200
244  2 -0.4808  0.912382 17.951300 22.759300
245  2 -0.5057  5.193900  6.552890 10.773300
246  2 -0.4957  5.169800  6.565120 22.876000
247  2 -0.4856  5.121810 18.146200 10.725200
248  2 -0.5168  5.076950 18.109400 23.002800
249  2 -0.4880  9.441260  6.596180 10.655500
250  2 -0.5274  9.358220  6.564020 22.936700
251  2 -0.4820  9.338820 18.197800 10.783100
252  2 -0.5093  9.479750 18.167000 22.920600
253  2 -0.4955 13.415500  6.458240 10.547800
254  2 -0.4968 13.462900  6.469410 22.860700
255  2 -0.4892 13.514100 18.089700 10.807100
256  2 -0.5021 13.521200 18.140800 22.783700
257  2 -0.6655  0.975757  9.946570  0.862046
258  2 -0.6073  0.917413  9.994630 13.182300
259  2 -0.6365  0.911440 21.656200  0.871669
260  2 -0.6042  0.856032 21.717300 13.234100
261  2 -0.5994  5.170070  9.984100  0.872267
262  2 -0.6407  5.056650 10.157600 13.232200
263  2 -0.6299  5.060240 21.666700  0.932586
264  2 -0.6263  5.071410 21.638100 13.207300
265  2 -0.6135  9.375910  9.850290  0.851755
266  2 -0.6346  9.313080 10.092000 13.221400
267  2 -0.6331  9.264240 21.603800  1.110490
268  2 -0.6155  9.355730 21.714300 13.154700
269  2 -0.6079 13.526000  9.973480  0.938802
270  2 -0.6437 13.565800 10.137300 13.314000
271  2 -0.6443 13.672600 21.701300  0.921520
272  2 -0.6411 13.513500 21.689100 13.161200
273  2 -0.6456  3.030200  1.625940 11.424600
274  2 -0.6123  3.127040  1.647100 23.496700
275  2 -0.6472  3.043830 13.204400 11.467600
276  2 -0.6436  3.037940 13.216400 23.559000
277  2 -0.6381  7.168680  1.625700 11.440000
278  2 -0.6136  7.234060  1.457530 23.516200
279  2 -0.6761  7.134430 13.216100 11.410400
280  2 -0.6076  7.253440 13.252000 23.581400
281  2 -0.6346 11.467400  1.687810 11.278500
282  2 -0.6253 11.419600  1.480470 23.574900
283  2 -0.6421 11.497500 13.213400 11.404400
284  2 -0.6337 11.423200 13.161900 23.547000
285  2 -0.6500 15.598600  1.690820 11.389800
286  2 -0.6407 15.712400  1.605400 23.653600
287  2 -0.6329 15.639500 13.292600 11.521000
288  2 -0.6164 15.731800 13.265600 23.460800
289  2 -0.6430  3.046770  4.269120  5.146310
290  2 -0.6436  2.894710  4.240820 17.406200
291  2 -0.6635  3.062870 15.853800  5.197440
292  2 -0.6299  3.074240 15.725200 17.370200
293  2 -0.6271  7.211090  4.245570  5.126720
294  2 -0.6070  7.278530  4.188420 17.368900
295  2 -0.6542  7.187500 15.845500  5.090660
296  2 -0.6261  7.365980 15.792200 17.322500
297  2 -0.6312 11.451000  4.194900  5.154080
298  2 -0.6248 11.376300  4.379510 17.373700
299  2 -0.6277 11.391800 15.857300  5.191130
300  2 -0.6181 11.494400 15.878900 17.362900
301  2 -0.5974 15.635100  4.182260  5.093500
302  2 -0.5762 15.745900  4.245430 17.497400
303  2 -0.6392 15.600500 15.722200  5.238400
304  2 -0.6667 15.607600 15.862700 17.384300
305  2 -0.6325  0.971143  7.433390  6.995070
306  2 -0.6652  0.898456  7.367380 19.164400
307  2 -0.6029  0.855828 18.948900  7.031110
308  2 -0.6316  0.881462 19.062700 19.203500
309  2 -0.6845  5.172890  7.448090  7.032980
310  2 -0.6273  5.186970  7.346430 19.072000
311  2 -0.6333  5.110950 18.926300  7.014520
312  2 -0.6444  5.131170 18.919800 19.187100
313  2 -0.6504  9.317720  7.432670  6.931310
314  2 -0.6672  9.224950  7.498830 19.101300
315  2 -0.6439  9.263090 18.913500  7.074740
316  2 -0.6414  9.373900 18.984900 19.202500
317  2 -0.6425 13.526500  7.528950  6.954500
318  2 -0.6067 13.487000  7.426270 19.197000
319  2 -0.6243 13.527800 18.966600  7.064430
320  2 -0.6269 13.556500 18.923500 19.018900

