Generated by pymatgen.io.lammps.data.LammpsData

504  atoms

  2  atom types

0.000000 17.774667  xlo xhi
0.000000 21.986255  ylo yhi
0.000000 41.650458  zlo zhi

Masses

1  208.9804
2   78.9600

Atoms

1    1  0.4795  7.117090  9.040940 10.908700
2    1  0.5664  0.597162 20.486300  4.544890
3    1  0.7654 10.395600  0.909727 14.871900
4    1  0.2063 -0.273911 13.414400 10.342100
5    1  0.3288  3.648570  6.504100 13.758000
6    1  0.6445  3.155710 19.219000 11.714100
7    1  0.3364  7.057630  5.656370 11.769700
8    1  0.4402  3.734120 12.247500 16.419200
9    1  0.7387 13.754700 15.918900 10.239800
10   1  0.1598  2.708830 12.329800 13.442500
11   1  0.5562 14.564700 10.742100  6.161790
12   1  0.4972 13.606300 15.650900 14.712900
13   1 -0.0562  1.904110  4.029370 13.927500
14   1  0.3852  5.777120  8.114830 17.727400
15   1  0.3745  6.326880 11.197800 13.778800
16   1  0.3447  6.634890  3.627160 13.674600
17   1  0.7886 14.957200 19.299800 12.099400
18   1  0.2426 17.195700  2.153790 14.535700
19   1  0.7251 10.226200 14.725800 12.922700
20   1  0.5485  9.467250  9.955340 18.368300
21   1  0.7829  9.601800  1.175520 25.912300
22   1  0.7188 10.780600 18.128200 14.597300
23   1  0.4940  8.678630  3.547440 10.795600
24   1  0.4912  8.652760  1.339120 18.038000
25   1  0.8376  1.651080 16.315900 36.076400
26   1  0.4290 14.050900 18.295500  3.496350
27   1  0.2579  1.061890  8.892400 38.663700
28   1  0.8431  7.300290 20.201300  2.992490
29   1  0.3801  4.171120 19.628300  4.987240
30   1  0.4437  2.701040 22.150700  6.963260
31   1  0.7846  7.459180  3.766820  4.990710
32   1  0.1930  3.288200  7.954900  0.830825
33   1  0.7475 13.376900  8.948280  2.359670
34   1  0.3401  3.849490  5.033410  7.528680
35   1  0.4024 16.925500  5.971350 37.737400
36   1  0.7083 16.989700 12.738500 41.237200
37   1  0.7648 16.351200 19.181900 28.590400
38   1  0.0292  3.689590  7.244110 39.503200
39   1  0.4233 14.007200  1.042530  7.337790
40   1  0.4070  5.895460 12.194000  6.880330
41   1  0.0735  6.429540  8.655770 40.495900
42   1  0.7162  3.388080 13.540400 37.865000
43   1  0.3865  9.746320  1.613880 37.071400
44   1  0.3601 16.925800  2.184390 40.632100
45   1  0.4430 12.608100 20.314400  6.658510
46   1  0.3778  1.795340 19.695900  1.189790
47   1  0.1163 -0.061753 16.629400  5.092790
48   1  0.5188 14.444400  1.214380  0.524744
49   1  0.3850  2.152990  9.154640  6.382100
50   1  0.3080  5.002820  5.185130 18.701900
51   1  0.1870  5.594420  9.739800  1.409530
52   1  0.2605  1.484580 12.127400  5.623460
53   1  0.7167 10.663100  9.875780 10.856200
54   1  0.5371  0.928309  2.115240  5.238630
55   1  0.5335 16.938000 10.150200  3.862660
56   1  0.5368 14.022800 11.495900 18.962900
57   1  0.0904  2.979710  2.670400  9.559620
58   1  0.1420 -0.182904 14.032300  6.111250
59   1  0.6219  1.244980 16.684200 41.662700
60   1  0.7748 13.646900 15.210300  0.762497
61   1  0.5570 12.159300  2.972160  4.475170
62   1  0.3935 11.118800 18.622100  4.269250
63   1  0.6829 16.024100  7.917570  9.783350
64   1  0.0038  4.543510  7.896930 35.038100
65   1  0.1117  5.402750 13.134700 11.702600
66   1  0.6961 16.722500 13.217200 35.700900
67   1  0.0728  2.383230 13.178400  9.372840
68   1  0.6889 14.400900 19.747200 40.747000
69   1  0.2558  2.325070 15.455400  6.497670
70   1  0.6460 15.641600  6.188840 41.578100
71   1  0.6536 13.675400  7.372680  5.763000
72   1  0.6116  0.028749 16.808500 12.177100
73   1  0.3252  6.934110  5.485110 40.313000
74   1  0.3658  5.755370 21.974200  8.650660
75   1  0.1780  1.590140 10.867800 10.923700
76   1  0.6740  7.210990  7.888270  7.232540
77   1  0.7549 12.699900  4.964220 11.702700
78   1  0.4371  0.069146  7.220760 13.278400
79   1  0.3335  3.091230 14.943400 12.090900
80   1  0.8102 12.435500 13.649800  8.811030
81   1  0.5076  7.101720  7.298710  2.519250
82   1  0.6755  9.343260 15.977500  2.692330
83   1  0.0777  4.293870  5.228390 41.412100
84   1  0.7873 12.283600 12.613400  3.554270
85   1  0.6460  0.440679  4.877510  5.626790
86   1  0.3623  1.844960  1.218940  1.805180
87   1  0.3257  4.067370  3.225180  1.983900
88   1  0.1558  0.231877 11.272900  8.323890
89   1  0.5164  0.032442  0.722825  8.816150
90   1  0.2622  4.269530  8.475880  7.749450
91   1  0.5970  2.189330 17.472400 20.573700
92   1  0.8119 12.300000  0.917906 10.855300
93   1  0.3473  1.485730 14.340900  3.728170
94   1  0.4939  0.429998  9.438610  0.410837
95   1  0.8275 10.744900 10.952100  6.976910
96   1  0.3726 15.448500 17.996100  6.788110
97   1  0.5978  9.558810 10.856800 24.648400
98   1  0.7808  6.534870 17.498700 21.392000
99   1  0.0845  5.873130  2.509230 16.693500
100  1  0.4712  4.190350 11.080400 19.797900
101  1  0.4438  3.664950 12.527200 31.973300
102  1  0.4363  7.718640  6.741140 20.469900
103  1  0.8392  8.515200 21.320300 22.999000
104  1  0.4428 17.326800  2.516330 10.836600
105  1  0.7948  2.417590  1.073530 27.080900
106  1  0.3080  7.907110  2.960580 34.972400
107  1  0.7728 13.831000 11.251100 27.385300
108  1  0.2993  6.231590  7.661970 29.829300
109  1  0.8071  6.198780 14.297300 25.420200
110  1  0.7184 11.904000  7.583410 20.438000
111  1  0.5375 12.449600  0.688148 28.657800
112  1  0.6128 13.851200 14.342000 30.761400
113  1  0.6054 17.004900 14.832200 28.217400
114  1  0.6248 13.435000 11.827700 33.899200
115  1  0.7334 13.032300 18.925200 21.330100
116  1  0.7144 10.137300 20.938000 30.332600
117  1  0.3885  5.458740  1.867250 30.562500
118  1  0.2732 15.988600 21.521700 18.298900
119  1  0.7342 10.769000 14.148400 22.161500
120  1  0.5470 12.297500 11.201600 22.046000
121  1  0.5827  7.100800 14.741200  6.459490
122  1  0.0993  4.086220 21.788700 16.546300
123  1  0.2994  2.305990  5.661920 11.062900
124  1  0.0166  3.604920  1.526430 12.016200
125  1  0.4615  5.530040 19.631800 18.954000
126  1  0.5516  5.314060  2.158300 22.226900
127  1 -0.0919  2.465250  1.646930 14.728200
128  1  0.2902 17.120500  4.948200 16.070000
129  1  0.6472 13.634000  7.987180 12.358700
130  1  0.5360  9.893140 13.750900 18.049700
131  1  0.5587 13.840000  2.183110 19.489800
132  1  0.6350 10.055400 21.784200  7.076700
133  1  0.3218  6.844080  5.026130  8.566520
134  1  0.3671 13.325600 14.142800 17.295400
135  1  0.4637  0.623972 21.811900 12.460300
136  1  0.8262 10.764000 19.343000 10.680200
137  1  0.2414  0.889807 21.797700 16.147100
138  1  0.4726 14.573500 15.241400  5.403960
139  1  0.5059  1.182430 11.674100 22.066600
140  1  0.5894 13.026500 21.133900 18.650900
141  1  0.5760 14.884600 14.686800 20.519300
142  1  0.4574  1.271420  8.957420 19.877300
143  1  0.1177  2.828900  3.141960 17.212600
144  1  0.5266 16.022300  7.462840 20.290400
145  1  0.6969 14.796400 11.454700 13.120600
146  1  0.0367  4.399580 10.625900  9.791780
147  1  0.7038  8.548870  4.934330 24.138800
148  1  0.3672  7.003870  9.539820 20.694900
149  1  0.7374  6.496590 13.764000 20.105200
150  1  0.4523 16.069700  4.523240 23.261900
151  1  0.7011  5.471910 16.993800 10.667700
152  1  0.5857 13.927200  1.102140 15.758300
153  1  0.3881  7.080790 11.724800 33.371700
154  1  0.5804  6.653860 10.916800 27.106300
155  1  0.5098 13.267600 19.269500 15.628100
156  1  0.7526  5.716290 21.789200 25.642000
157  1  0.6621 10.610600  3.692740 20.054900
158  1  0.5596  2.129000 14.771600 23.674200
159  1  0.6822 16.232000 13.287500 15.786500
160  1  0.7650 10.489100 15.888900  9.734910
161  1  0.1926  5.214720  1.067590 19.409500
162  1  0.3039  0.074882 19.946500 19.933900
163  1  0.4225 11.403700 16.595300 17.650900
164  1  0.5917 15.542600  4.899810 18.999000
165  1  0.4928  2.253140 15.409700 26.799500
166  1  0.3460 17.331300 16.255600  8.540810
167  1  0.4571  7.151800 14.359400  9.734660
168  1  0.3623  4.924740 21.569200 13.922000
169  1  0.7532  4.244850 18.369600 25.598900
170  1  0.6831  3.207630  6.263660 27.312400
171  1  0.3981  7.954840  4.901290 17.507600
172  1  0.5651 14.820500  8.882700 23.276500
173  1  0.3787  1.393510  5.965560 19.100600
174  1  0.6720 -0.460714 19.408500  9.021280
175  1  0.2349 -0.081297  0.889760 20.842700
176  1  0.5559 10.534000 10.557800 27.517600
177  1  0.5538  2.772000 11.871500 28.236300
178  1  0.5273  7.665350  5.775560 28.280200
179  1  0.3141  2.885830  0.021638 20.544600
180  1  0.2916  4.592990  9.353280 12.432900
181  1  0.4243 16.332300 17.000800 21.542500
182  1  0.0765  5.965710  2.507620 10.697800
183  1  0.6905  9.504430  7.199880 13.927500
184  1  0.5290  7.042640 14.543100 16.237500
185  1  0.5076  7.280900 17.856400 16.990100
186  1  0.2016 -0.120357  1.700700 18.220800
187  1  0.6017 16.957800  8.769650 16.954900
188  1  0.8412 12.460400  4.396570 16.520800
189  1  0.5360  0.348501 13.256200 19.219100
190  1  0.5763  0.279808  9.963070 25.197900
191  1  0.6112  0.987771 18.424600 15.473400
192  1  0.4831 15.408500 11.669300  9.766440
193  1  0.7458 10.589100 15.113700 34.302200
194  1  0.2108  6.646200 11.828900 40.790300
195  1  0.2939 14.402400  3.615260 39.668900
196  1  0.2459  1.806110  0.053741 40.667700
197  1  0.5552  4.765450  8.793230  4.489960
198  1  0.4008  9.988390 12.045700 40.987500
199  1  0.5208  8.068070 21.662000 34.111800
200  1  0.6140 11.391100 21.833800 41.568700
201  1  0.6146 15.281500  1.120510  4.294360
202  1  0.6709  6.288710 12.003100  2.899940
203  1  0.7842  9.031420 20.172900 39.142300
204  1  0.6551 10.655800 15.805200  6.161640
205  1  0.6391 10.270900  7.834950 41.144900
206  1  0.7442  9.725030  2.437350  1.378050
207  1  0.6064  1.283190  5.830250  2.062720
208  1  0.5450 10.714400 15.349600 38.196900
209  1  0.4794 10.434900 19.169700  1.401470
210  1  0.1258  2.451830 16.998300  3.633440
211  1  0.3637  4.710230  0.776232 41.251800
212  1  0.5665 10.972600  2.876530 31.108800
213  1  0.5257 10.811500 14.511500 29.556900
214  1  0.3579  0.410868 10.142000 31.681500
215  1  0.5130 12.610200  0.998722 38.279500
216  1  0.6856 -0.086948  3.723870 30.067500
217  1  0.7890  0.470380 19.074300 33.975000
218  1  0.3504 14.951400  2.691130 27.603800
219  1  0.1158  1.445410  8.121370 34.074400
220  1  0.3113  5.611230  4.865020 30.174500
221  1  0.3954  2.385070  3.598540 34.426500
222  1  0.7758 -0.063904 18.760100 24.379000
223  1  0.6580 14.300900 20.446100 31.311600
224  1  0.3063 15.325300  5.284550 26.288900
225  1  0.5419  0.857492  3.389300 37.610700
226  1  0.5505  6.799920 13.860500 29.466600
227  1  0.5226  4.190150 19.423700 29.434500
228  1  0.1889  2.574820  3.123080 40.626400
229  1  0.4975  6.735730  2.659560 27.899100
230  1  0.1212  4.262190  7.209250 32.100200
231  1  0.5900  4.506070  1.388110 38.337300
232  1  0.6766 10.030600 15.006800 26.356500
233  1  0.7047  5.319850  8.417800 23.225800
234  1  0.2512 10.403500  6.862740 37.226100
235  1  0.7724  9.349580 17.682600 24.403400
236  1  0.4882 16.565900  9.051440 34.122500
237  1  0.6175 11.970900  3.632860 23.187600
238  1  0.5864 16.813100 13.320500 24.619600
239  1  0.7477 13.912800 17.631100 34.050100
240  1  0.6575 10.359100  7.701160 25.315600
241  1  0.7614 14.000400 19.025100 37.195700
242  1  0.8314 15.112700  3.555880 33.344700
243  1  0.1319  7.313140  7.058560 35.069400
244  1  0.6638 15.437700  9.266220 38.285000
245  1  0.4431  8.110100 12.230500 38.099700
246  1  0.7616  5.216480 18.383200 41.260900
247  1  0.6035  6.559430 14.884200  0.503526
248  1  0.2862 -0.268893  5.516580 34.507100
249  1  0.2750  3.686620  9.447170 37.913400
250  1  0.2243  6.684780  9.813730 35.513400
251  1  0.5133 13.623500  4.925330 29.061100
252  1  0.0444  6.179010  9.152820 32.552900
253  1  0.7091 11.803500  1.115010 33.719200
254  1  0.8215  7.091760 15.537700 34.510400
255  1  0.3841 10.967200 11.910700 38.468100
256  1  0.6343 15.854500  8.545430 29.930700
257  1  0.7797 12.433300  6.189670 32.976600
258  1  0.4707 13.377800  5.565100 37.253600
259  1  0.6974 15.435400 14.576500 38.618100
260  1  0.5311 12.699000 18.042600 29.039100
261  1  0.5992 10.358100 11.371400 32.446900
262  1  0.4207  0.060817  3.784550 25.514500
263  1  0.2735  5.356560  5.283690 35.640500
264  1  0.3906  9.574490  4.312400 38.937900
265  1  0.6643  3.794510 16.992400 31.213100
266  1  0.4677  3.838430 12.272800 40.613300
267  1  0.6260  2.262310  6.097340 22.689200
268  1  0.5686  6.292850 18.760500  7.238230
269  1  0.4485  5.366490 16.628300  4.494200
270  1  0.7962  6.443910 17.296300 37.787400
271  1  0.6178  2.484260  1.538940 31.988700
272  1  0.5159 15.079700  0.939961 22.479900
273  1  0.5961  7.899940 17.394400 31.749600
274  1  0.4268 10.332000  9.133720 34.993900
275  1  0.6971 17.532700 15.480500 32.199100
276  1  0.4288  1.853960  1.532230 23.318000
277  1  0.4271  5.444420 21.174100 31.846200
278  1  0.7174  0.317779 19.858600 38.752800
279  1  0.0826  6.170000  7.425090 37.797800
280  1  0.0995  2.153510  6.900530 36.661200
281  1  0.5998  2.516980  0.179809 35.151000
282  1  0.7516 16.997100  0.464539 35.741100
283  1  0.6417  5.012150 19.764700 34.951800
284  1  0.4505 16.385200 16.781200 17.530200
285  1  0.1632  3.411340 10.135800 33.476800
286  1  0.6657 14.782600  4.583650  7.040940
287  1  0.8353 14.102700 17.944400 25.415000
288  1  0.1715  4.165580  9.925720 30.672500
289  2 -0.6655 17.302900 11.851900 38.590400
290  2 -0.7348 15.163600  5.947490 11.808200
291  2 -0.9348  0.424841  5.772750 40.375000
292  2 -0.6139 14.817300 10.609300 35.933200
293  2 -0.7103 15.231800 21.288200 38.123600
294  2 -0.5892  0.692385  6.499600  8.901020
295  2 -0.5180  5.453480 19.571200 38.881700
296  2 -0.7425  6.234580  6.548400  4.791010
297  2 -0.8159 15.965100 20.940100  5.990850
298  2 -0.4897  9.692950 12.927300  4.784220
299  2 -0.8636  5.126360 11.791700 38.269000
300  2 -0.7594  0.022419  0.495614  3.225740
301  2 -0.5822  0.243268 14.936300 39.615600
302  2 -0.6489 15.377300  8.680310 41.289800
303  2 -0.5487  8.780220 21.565100  0.330902
304  2 -0.6569  7.110890  2.753590 39.781800
305  2 -0.4221  2.009820 13.805600 34.289400
306  2 -0.3102 11.203600 17.753500 35.717100
307  2 -0.5356 13.153500 16.820600 39.545200
308  2 -0.8339 17.287000  3.120610  7.822780
309  2 -0.6945  3.998480 12.364100  4.472400
310  2 -0.6017  7.225780  9.983560  4.824340
311  2 -0.6210 10.105800 21.313200  4.244100
312  2 -0.8207 16.208000  3.602400 37.019200
313  2 -0.8782  1.513520 19.285400  6.811700
314  2 -0.6222 10.529600 18.686200  7.846100
315  2 -0.6398 14.066400 13.395900 40.637300
316  2 -0.6241 16.140300 21.216200  0.707789
317  2 -0.5216  4.793390 16.848600 34.848800
318  2 -0.7343  8.330450 17.639800  4.715920
319  2 -0.6339  9.067880  5.204210  0.368142
320  2 -0.5633  9.457360  2.062130  5.869250
321  2 -0.7572 12.850400  3.959950 34.816900
322  2 -0.6152 16.237400 14.238400  2.665900
323  2 -0.6002 15.641200 17.660600  1.479880
324  2 -0.9504 14.969500 13.148400  7.229920
325  2 -0.8175 12.709100 15.253400  3.485850
326  2 -0.6560  7.064610 17.958400  1.484510
327  2 -0.6687 12.217200  9.927600  4.727290
328  2 -0.5819 15.767400  0.026689 12.209600
329  2 -0.7159  8.273860 15.294500 36.561600
330  2 -0.9096  2.216760 21.386000  9.948910
331  2 -0.5030 10.738600  3.337120  9.203360
332  2 -0.4579  9.697530 22.067500 11.022300
333  2 -0.7999 12.696400 10.794200  8.729890
334  2 -0.6610  7.790280 17.009400  8.535000
335  2 -0.4748  9.654550  9.884340  2.117320
336  2 -0.7901 12.935800 -0.010976  2.451870
337  2 -0.8166  9.968700 13.809600  8.421140
338  2 -0.7550 13.008500 20.966000  9.365940
339  2 -1.0528  5.002180  7.489080 10.306100
340  2 -0.4738 12.572700  6.202680  1.803780
341  2 -0.3704  6.927470  1.512410  2.900020
342  2 -0.5714  6.610190 21.256900  5.680860
343  2 -0.6672  4.122030  2.208860  5.474210
344  2 -0.8141 16.935400  9.624800 11.636600
345  2 -0.7808 -0.147622 19.121800 12.746400
346  2 -0.7618 12.380500 17.681900 12.727200
347  2 -0.6757  2.247210  8.641550  3.657360
348  2 -0.8961 12.424900 16.067500  8.005850
349  2 -0.5208  9.094640 16.954700 11.691900
350  2 -0.8712  3.628140  3.658380 37.379100
351  2 -0.6413  3.176800  5.196580  4.198790
352  2 -0.3573  8.066610 18.779000 14.276600
353  2 -0.4740 16.399400 17.631300 39.173900
354  2 -0.8661  2.663020 19.796600 18.840100
355  2 -0.5800 14.594900  2.927380 10.078600
356  2 -0.9362 15.036100  3.396740 17.036900
357  2 -0.5013  9.586690 12.216900 15.826100
358  2 -0.8673 15.481100 17.858800  9.749940
359  2 -0.6342 15.093000  4.409980  4.467590
360  2 -0.3878  8.933720  5.673160  7.102420
361  2 -0.5317 12.242000  8.927900 18.061600
362  2 -0.5603  4.466680 19.185900 21.738700
363  2 -0.5462 12.192300  6.569030 14.052000
364  2 -0.7906 16.471800  8.680690  6.977900
365  2 -0.7809 13.668100 13.700200 11.194100
366  2 -0.5863 11.541600 12.950000 25.457300
367  2 -0.7467  9.058010 12.387600 20.083800
368  2 -0.6944  0.449701 15.665300 16.148400
369  2 -0.9899 16.018500  3.202250 20.909000
370  2 -0.8547  4.544740 14.780700  7.942860
371  2 -0.5281 12.442100  5.692380  7.038910
372  2 -0.5727  6.631880 15.548600 13.654200
373  2 -0.6797  6.671170 14.766900  2.970090
374  2 -0.5026 16.770900  6.921530  3.132580
375  2 -0.5080 12.725700 10.370700 13.991700
376  2 -0.6915  8.610360  9.565220  8.655260
377  2 -0.6725  9.010110 11.629100 11.893500
378  2 -0.6196 14.996400 11.136200  2.170410
379  2 -0.5479 10.760800  2.461050 12.642200
380  2 -0.6288 -0.394658 10.744200 15.072600
381  2 -0.6550 12.580800  9.954030 24.440100
382  2 -0.6278 15.279100  8.874470 26.655700
383  2 -0.6915 10.035200  7.115470 11.161800
384  2 -0.7958 16.069300 21.337100 15.439500
385  2 -0.9558 14.346800 18.881200 18.471200
386  2 -0.8380  6.420920  6.278130 14.597300
387  2 -0.8915  2.737500  3.518350 19.817200
388  2 -0.5379 14.917700  6.912280 16.381900
389  2 -0.4304  9.180910 18.718600 21.434000
390  2 -0.4394  6.106370 19.447700 11.520100
391  2 -0.9540 11.104000 15.490200 15.239200
392  2 -0.8817 17.242800  7.390250 22.515800
393  2 -0.8287  3.547630  7.528210 20.638100
394  2 -0.7283  7.653600  1.487190 24.406100
395  2 -0.4298  4.965730 16.149100 23.415200
396  2 -1.0320 15.532300 13.531300 18.362400
397  2 -0.6591  8.266150  0.033816 20.414500
398  2 -0.6273  7.477330  1.011880 13.656000
399  2 -0.7021  5.201590 16.073900 27.321600
400  2 -0.7169  3.081510  8.884640 16.159700
401  2 -0.6070  9.965140  4.119290 15.464200
402  2 -0.6669 11.722700 16.182500 20.741500
403  2 -0.7759 11.572400  1.855250 17.470800
404  2 -0.6880 12.860500  5.002590 20.544400
405  2 -0.5908  3.747520 14.294600  0.986998
406  2 -0.7567 15.907000 14.630100 13.310700
407  2 -0.7104  7.139670  4.317670 21.784400
408  2 -0.6038  4.510150 15.808600 18.375100
409  2 -0.5624  3.530060 10.430900 22.471300
410  2 -0.4962 14.556500 13.607700 26.342400
411  2 -0.3863  2.681220  8.741090 25.294100
412  2 -0.3835  6.668040 12.034700 23.438900
413  2 -0.8921 16.349400  9.883470 19.480100
414  2 -0.4908 13.520100 14.249800 22.992500
415  2 -0.3256 12.883700  8.955740 29.406100
416  2 -0.4620  4.849720  5.591860 24.695500
417  2 -0.7060 10.170000  5.821250 18.748000
418  2 -0.5713  1.497040 18.252600 27.548700
419  2 -0.6558  8.292010 15.696000 19.996900
420  2 -0.3412 -0.065299  0.670157 28.686900
421  2 -0.5602 10.161900 20.341700 17.435000
422  2 -0.7331  8.737690 13.948300 31.588800
423  2 -0.7421  9.376420  3.676530 27.124000
424  2 -0.7827  2.680770 16.404900  9.999510
425  2 -0.7229 15.635000 13.672000 33.404900
426  2 -0.6413 -0.310456  1.271390 25.570800
427  2 -0.5326 11.660800 22.339100 20.682700
428  2 -0.5147  9.564960  8.704280 31.832800
429  2 -0.6387 11.924200 20.564800 13.852200
430  2 -0.7098 12.392600 12.290600 30.257700
431  2 -0.7262  9.870970  9.770140 22.207500
432  2 -0.6133  7.029150 19.397800 24.261800
433  2 -0.6641  9.874500  6.525810 22.278600
434  2 -0.6908 15.364700 17.017700 27.569300
435  2 -0.6541  2.754670 12.447500 25.408000
436  2 -0.7619  1.629440 10.533100 35.609000
437  2 -0.5895  7.559640 22.024400 27.523000
438  2 -0.5051 15.611100 19.944600 25.685700
439  2 -0.5900  4.227990 13.415700 21.281900
440  2 -0.5981  3.078460 20.745300 24.766800
441  2 -0.6691  7.578000  7.596320 25.898800
442  2 -0.6345 16.232900 12.286700 29.315000
443  2 -0.7270  3.162160 19.788100 32.880200
444  2 -0.7847  6.163980 11.122400 16.899400
445  2 -0.7877  8.132750  0.522545 30.779000
446  2 -0.4448  9.771640  8.036530 28.474900
447  2 -0.9203  8.202420 13.155100 27.114300
448  2 -0.2584  9.778380  5.761180  3.747500
449  2 -0.6434 12.924900  1.520520 25.087400
450  2 -0.5962 17.058800  3.363240  1.787310
451  2 -0.5625  3.616790 18.009300 14.314200
452  2 -0.5021  7.450680 18.498100 28.750500
453  2 -0.5739  1.107770  8.489490 28.889900
454  2 -0.6776 14.867300  2.937940 30.740700
455  2 -0.4789 14.158900  8.498500 32.833100
456  2 -0.7298  1.941530  3.801980 27.442100
457  2 -0.8836 16.929700 13.624600 21.888700
458  2 -0.7569  2.086160 13.961300 29.991600
459  2 -0.4778 10.536500 20.098200 33.412200
460  2 -0.5602 -0.473740 19.356700 31.098800
461  2 -0.6817 11.385100 17.466400 26.022200
462  2 -0.5484  1.877900 16.826700 33.354600
463  2 -0.6280 15.070400  5.793940 31.553800
464  2 -0.6496 16.847600 16.434100 24.970700
465  2 -0.5832  4.194770 15.981300 39.806100
466  2 -0.5855 12.798100  8.140420 39.098300
467  2 -0.7258  4.687960  9.551920 27.955400
468  2 -0.7054 10.131600 13.878600  1.533720
469  2 -0.6875 13.204100  5.799310 24.430600
470  2 -0.6301 -0.209282  2.225810 32.590300
471  2 -0.6304  2.662120 11.073600  1.561040
472  2 -0.5654  8.290000 14.827200 23.857500
473  2 -0.7872 14.323100 17.481900 31.396500
474  2 -0.6824  5.642540 15.271800 31.869000
475  2 -0.8816 12.303600  0.536632 31.302200
476  2 -0.8248 15.556800 19.617600 22.072800
477  2 -0.7010  3.089400 22.047800 29.747400
478  2 -0.6902  4.345050  2.252370 25.593100
479  2 -0.6239  2.355980 17.622900 23.508800
480  2 -0.4483  5.439370 13.467700 35.322600
481  2 -0.6587 12.988600 15.176300 35.414800
482  2 -0.6433  1.812970 19.270200 36.029000
483  2 -0.8142  9.678310 12.173000 35.002600
484  2 -0.5103  7.787200 18.770200 35.777800
485  2 -0.5963  6.797440 21.744700 36.449400
486  2 -0.5064 15.043100 20.250500 34.161200
487  2 -0.6651  2.439330 18.864800 40.005600
488  2 -0.8592 10.882600  2.307560 40.407200
489  2 -0.9139  9.024400  9.393680 38.969200
490  2 -0.6209 10.677100 16.571000 31.966500
491  2 -0.5792 11.697900 21.695000 36.353000
492  2 -0.7419 11.520500 19.699800 40.180400
493  2 -0.8158  4.617370 20.448300  1.894090
494  2 -0.6136 14.341300  7.396710 35.494800
495  2 -0.4156 10.930300 20.482100 23.811000
496  2 -0.8819  0.980777  0.684654 37.450500
497  2 -0.6634 17.015800 16.920600 35.848300
498  2 -0.5891  8.491360 17.524100 39.946200
499  2 -0.8224  4.631340  1.638690 33.798400
500  2 -0.5742 11.160900 20.439000 27.723100
501  2 -0.4106 14.465400  1.220470 34.747000
502  2 -0.4499 11.141400  5.504940 30.344800
503  2 -0.7760  2.305480  5.252340 31.128600
504  2 -0.7096  8.070010  5.372670 32.683400

