Generated by pymatgen.io.lammps.data.LammpsData

320  atoms

  2  atom types

0.000000 16.771511  xlo xhi
0.000000 23.790645  ylo yhi
0.000000 24.472453  zlo zhi

Masses

1  208.9804
2   78.9600

Atoms

1    1  0.8307  0.941365 11.182200 10.514500
2    1  0.8297  0.930733 11.176000 22.752600
3    1  0.8288  0.940288 23.073800 10.521200
4    1  0.8303  0.935137 23.077100 22.747800
5    1  0.8315  5.139910 11.175100 10.519500
6    1  0.8289  5.132230 11.183800 22.754000
7    1  0.8292  5.130540 23.069900 10.519400
8    1  0.8290  5.138630 23.068400 22.758900
9    1  0.8286  9.320930 11.179200 10.520100
10   1  0.8312  9.316270 11.169400 22.751000
11   1  0.8290  9.325690 23.073400 10.526300
12   1  0.8314  9.315910 23.074800 22.743300
13   1  0.8301 13.522300 11.175200 10.520300
14   1  0.8287 13.527200 11.180000 22.753100
15   1  0.8292 13.516800 23.070300 10.524400
16   1  0.8284 13.524400 23.071600 22.751200
17   1  0.8256  3.027850  0.168538  1.747550
18   1  0.8248  3.040360  0.156818 13.984700
19   1  0.8245  3.037240 12.054700  1.746330
20   1  0.8253  3.035560 12.057000 13.989500
21   1  0.8271  7.243250  0.153519  1.752850
22   1  0.8266  7.230810  0.155266 13.980200
23   1  0.8259  7.234380 12.052600  1.743830
24   1  0.8264  7.226140 12.055200 13.991100
25   1  0.8260 11.409300  0.161731  1.745720
26   1  0.8255 11.420000  0.165622 13.989400
27   1  0.8253 11.426300 12.051500  1.740480
28   1  0.8244 11.415800 12.058700 13.990200
29   1  0.8268 15.620300  0.153756  1.753500
30   1  0.8256 15.616000  0.157073 13.992200
31   1  0.8237 15.615000 12.043700  1.752990
32   1  0.8274 15.616100 12.056200 13.996200
33   1  0.8281  3.033680  5.233040  7.835260
34   1  0.8290  3.038160  5.232760 20.070500
35   1  0.8301  3.033570 17.127000  7.833630
36   1  0.8283  3.027420 17.124100 20.061800
37   1  0.8299  7.238810  5.234340  7.835530
38   1  0.8296  7.230860  5.232950 20.066800
39   1  0.8288  7.219670 17.135300  7.842070
40   1  0.8303  7.240780 17.135100 20.060100
41   1  0.8265 11.416200  5.229290  7.833100
42   1  0.8299 11.419700  5.237030 20.065600
43   1  0.8304 11.424500 17.124200  7.835420
44   1  0.8283 11.407500 17.122800 20.060500
45   1  0.8299 15.621800  5.233750  7.845180
46   1  0.8293 15.616400  5.230370 20.067000
47   1  0.8300 15.613100 17.130900  7.843460
48   1  0.8283 15.625100 17.128100 20.066400
49   1  0.8281  0.935440  6.107030  4.361990
50   1  0.8266  0.939840  6.107610 16.587800
51   1  0.8261  0.936364 18.004400  4.365010
52   1  0.8264  0.933599 17.996800 16.585300
53   1  0.8264  5.138430  6.113970  4.374290
54   1  0.8274  5.132420  6.114040 16.604900
55   1  0.8263  5.136010 18.000200  4.372380
56   1  0.8265  5.142070 18.016600 16.610500
57   1  0.8269  9.313030  6.101420  4.369540
58   1  0.8267  9.326200  6.108860 16.596900
59   1  0.8262  9.325090 18.014900  4.382010
60   1  0.8262  9.316920 18.000500 16.592700
61   1  0.8255 13.517900  6.111100  4.366830
62   1  0.8277 13.523200  6.114320 16.600100
63   1  0.8262 13.523900 17.999500  4.363190
64   1  0.8254 13.518100 18.009500 16.603500
65   1  0.7952  0.948427  1.543970  5.855850
66   1  0.7944  0.943880  1.533170 18.102700
67   1  0.7949  0.947026 13.441000  5.847320
68   1  0.7941  0.949431 13.437300 18.086000
69   1  0.7962  5.124570  1.559010  5.853140
70   1  0.7959  5.126500  1.549970 18.108600
71   1  0.7954  5.131040 13.468100  5.852180
72   1  0.7959  5.129030 13.430700 18.103100
73   1  0.7958  9.331960  1.551760  5.855760
74   1  0.7959  9.331250  1.531960 18.095500
75   1  0.7942  9.331630 13.439600  5.858330
76   1  0.7957  9.323370 13.435100 18.079900
77   1  0.7957 13.520100  1.559770  5.859580
78   1  0.7952 13.520900  1.539620 18.101000
79   1  0.7961 13.519500 13.466000  5.853960
80   1  0.7959 13.516700 13.443500 18.102600
81   1  0.7931  3.037650  9.752250  6.365540
82   1  0.7938  3.035630  9.752910 18.593500
83   1  0.7959  3.031490 21.652300  6.372450
84   1  0.7940  3.045050 21.647900 18.607900
85   1  0.7957  7.233990  9.774090  6.369760
86   1  0.7949  7.222180  9.754450 18.617000
87   1  0.7953  7.222470 21.658100  6.371150
88   1  0.7946  7.221960 21.646400 18.618500
89   1  0.7930 11.423100  9.761970  6.352630
90   1  0.7935 11.423900  9.754610 18.600800
91   1  0.7961 11.419500 21.648100  6.362320
92   1  0.7943 11.437100 21.641300 18.607200
93   1  0.7943 15.619200  9.762130  6.373520
94   1  0.7950 15.612100  9.756470 18.615200
95   1  0.7933 15.615000 21.662100  6.376210
96   1  0.7937 15.610900 21.649500 18.619500
97   1  0.7945  3.048650  7.489850 12.496600
98   1  0.7958  3.043420  7.506440  0.258467
99   1  0.7967  3.057200 19.400000 12.493800
100  1  0.7969  3.035440 19.414500  0.266023
101  1  0.7952  7.206830  7.486540 12.502800
102  1  0.7977  7.230460  7.505960  0.265630
103  1  0.7959  7.217740 19.379800 12.503700
104  1  0.7944  7.228390 19.395900  0.274516
105  1  0.7948 11.430800  7.494130 12.488900
106  1  0.7952 11.423700  7.506000  0.259199
107  1  0.7977 11.428000 19.389100 12.499300
108  1  0.7955 11.413800 19.412900  0.269419
109  1  0.7952 15.608500  7.490470 12.491900
110  1  0.7955 15.611800  7.502520  0.272936
111  1  0.7956 15.605800 19.387100 12.502700
112  1  0.7946 15.613300 19.387400  0.272238
113  1  0.7933  0.944668  3.833920 24.218500
114  1  0.7943  0.944603  3.803100 11.980500
115  1  0.7933  0.946602 15.715400 24.229800
116  1  0.7938  0.947223 15.715600 11.978700
117  1  0.7952  5.129680  3.817500 24.222600
118  1  0.7939  5.128040  3.805790 11.988900
119  1  0.7939  5.136300 15.701600 24.232100
120  1  0.7954  5.127770 15.704400 11.987100
121  1  0.7967  9.325060  3.817700 24.219600
122  1  0.7932  9.329280  3.807880 11.968400
123  1  0.7941  9.327310 15.712300 24.236200
124  1  0.7945  9.333470 15.711800 11.981400
125  1  0.7942 13.519400  3.809430 24.228000
126  1  0.7928 13.514200  3.811390 11.981900
127  1  0.7939 13.512500 15.698900 24.237500
128  1  0.7942 13.520200 15.713900 11.983200
129  2 -0.4941  0.946861  3.403380  8.720330
130  2 -0.4937  0.941099  3.397950 20.951900
131  2 -0.4929  0.945037 15.298600  8.723460
132  2 -0.4936  0.934735 15.295100 20.941400
133  2 -0.4914  5.125950  3.403140  8.718270
134  2 -0.4931  5.133610  3.393080 20.948200
135  2 -0.4954  5.131130 15.310000  8.710130
136  2 -0.4886  5.139330 15.293000 20.953500
137  2 -0.4964  9.318760  3.393360  8.715580
138  2 -0.4924  9.329670  3.410180 20.954900
139  2 -0.4934  9.329800 15.300800  8.718290
140  2 -0.4914  9.316970 15.293000 20.932700
141  2 -0.4946 13.520000  3.404260  8.721330
142  2 -0.4917 13.509700  3.401580 20.948500
143  2 -0.4949 13.522900 15.302500  8.712350
144  2 -0.4898 13.518600 15.295500 20.952900
145  2 -0.4974  3.031930  7.931650  3.493130
146  2 -0.4997  3.043330  7.938680 15.718000
147  2 -0.4961  3.044600 19.833600  3.493780
148  2 -0.4962  3.033490 19.834900 15.718500
149  2 -0.4968  7.228000  7.939310  3.491440
150  2 -0.4976  7.227500  7.937390 15.716200
151  2 -0.4992  7.221770 19.843100  3.508470
152  2 -0.4993  7.231210 19.838200 15.720400
153  2 -0.4976 11.412700  7.940200  3.491790
154  2 -0.4981 11.425000  7.933510 15.719400
155  2 -0.4992 11.424100 19.833500  3.497340
156  2 -0.4972 11.423300 19.829300 15.715000
157  2 -0.4981 15.629200  7.934960  3.494820
158  2 -0.4971 15.607200  7.935960 15.711400
159  2 -0.4995 15.615800 19.838500  3.503350
160  2 -0.4972 15.612800 19.838400 15.720500
161  2 -0.4922  3.035850  9.347130  9.644480
162  2 -0.4927  3.040670  9.354700 21.871700
163  2 -0.4938  3.041440 21.240900  9.642060
164  2 -0.4942  3.039440 21.250700 21.873300
165  2 -0.4922  7.226230  9.350220  9.630450
166  2 -0.4953  7.218660  9.352480 21.873200
167  2 -0.4913  7.234030 21.236400  9.641450
168  2 -0.4965  7.227390 21.243000 21.883200
169  2 -0.4915 11.422500  9.345510  9.641750
170  2 -0.4926 11.425100  9.346330 21.873400
171  2 -0.4904 11.420100 21.239200  9.642390
172  2 -0.4942 11.418300 21.252600 21.871900
173  2 -0.4933 15.619500  9.350840  9.635570
174  2 -0.4950 15.613200  9.352040 21.871000
175  2 -0.4937 15.614600 21.241100  9.642770
176  2 -0.4958 15.617800 21.244100 21.881800
177  2 -0.4984  0.939135  1.992830  2.617050
178  2 -0.4961  0.939809  1.990460 14.876100
179  2 -0.4982  0.952891 13.895500  2.609880
180  2 -0.4982  0.937171 13.885400 14.882600
181  2 -0.4953  5.138270  1.990070  2.631020
182  2 -0.4960  5.135700  1.988720 14.859800
183  2 -0.4992  5.131690 13.882800  2.634530
184  2 -0.4960  5.128930 13.891000 14.866000
185  2 -0.4978  9.318500  1.999840  2.609950
186  2 -0.4967  9.320780  1.982510 14.875400
187  2 -0.4973  9.330610 13.891800  2.603890
188  2 -0.4979  9.323040 13.890800 14.881700
189  2 -0.4962 13.523600  1.984260  2.628210
190  2 -0.4966 13.521300  1.992240 14.869900
191  2 -0.4998 13.511000 13.878600  2.635070
192  2 -0.4958 13.518700 13.888100 14.866700
193  2 -0.5375  0.939102 10.781200  4.548270
194  2 -0.5388  0.932142 10.763300 16.797200
195  2 -0.5406  0.948082 22.687500  4.565710
196  2 -0.5364  0.938432 22.659700 16.805300
197  2 -0.5361  5.136270 10.771600  4.569050
198  2 -0.5421  5.139650 10.779700 16.808800
199  2 -0.5349  5.125510 22.662600  4.569500
200  2 -0.5410  5.131420 22.684500 16.815900
201  2 -0.5392  9.313180 10.781300  4.553230
202  2 -0.5379  9.320040 10.761600 16.797100
203  2 -0.5407  9.326780 22.687000  4.568960
204  2 -0.5353  9.328060 22.658400 16.809600
205  2 -0.5379 13.528700 10.776000  4.565400
206  2 -0.5398 13.522900 10.782300 16.806600
207  2 -0.5352 13.517900 22.670900  4.566260
208  2 -0.5416 13.520100 22.680500 16.809300
209  2 -0.5354  3.032660  0.535802  7.666430
210  2 -0.5346  3.034580  0.543842 19.914400
211  2 -0.5332  3.039780 12.434500  7.670230
212  2 -0.5355  3.033980 12.430300 19.909900
213  2 -0.5319  7.219600  0.538414  7.668320
214  2 -0.5343  7.242800  0.534351 19.917400
215  2 -0.5341  7.221770 12.443700  7.670020
216  2 -0.5336  7.233880 12.441600 19.903100
217  2 -0.5348 11.426300  0.526646  7.664190
218  2 -0.5328 11.419700  0.549553 19.913900
219  2 -0.5353 11.431000 12.431200  7.666860
220  2 -0.5331 11.417700 12.434000 19.910300
221  2 -0.5345 15.619500  0.543580  7.669320
222  2 -0.5364 15.613300  0.528797 19.920300
223  2 -0.5322 15.620900 12.447200  7.669150
224  2 -0.5335 15.614100 12.435500 19.908400
225  2 -0.5398  3.044980  4.832010  1.543090
226  2 -0.5411  3.033330  4.828390 13.787300
227  2 -0.5379  3.046780 16.738600  1.552890
228  2 -0.5393  3.032010 16.729600 13.779700
229  2 -0.5365  7.226530  4.828060  1.550380
230  2 -0.5378  7.234140  4.815410 13.784400
231  2 -0.5378  7.225110 16.727300  1.568380
232  2 -0.5389  7.229220 16.714000 13.785800
233  2 -0.5376 11.427400  4.825080  1.553150
234  2 -0.5392 11.413200  4.827600 13.781900
235  2 -0.5382 11.432200 16.735800  1.555700
236  2 -0.5404 11.421800 16.724200 13.778900
237  2 -0.5379 15.611600  4.828410  1.558740
238  2 -0.5383 15.616700  4.824200 13.784100
239  2 -0.5395 15.604400 16.729000  1.566310
240  2 -0.5401 15.622800 16.726900 13.785600
241  2 -0.5329  0.937336  6.482950 10.673200
242  2 -0.5348  0.936949  6.494160 22.918900
243  2 -0.5318  0.942722 18.385800 10.680400
244  2 -0.5339  0.943756 18.383200 22.925400
245  2 -0.5352  5.135740  6.490400 10.679600
246  2 -0.5347  5.137890  6.489630 22.919500
247  2 -0.5370  5.134430 18.378200 10.686200
248  2 -0.5303  5.133310 18.380700 22.924500
249  2 -0.5311  9.317590  6.493760 10.664900
250  2 -0.5349  9.313080  6.487530 22.931400
251  2 -0.5319  9.326350 18.394400 10.686400
252  2 -0.5332  9.324910 18.376800 22.920700
253  2 -0.5352 13.516400  6.491840 10.671200
254  2 -0.5330 13.526200  6.483630 22.915100
255  2 -0.5369 13.513800 18.378100 10.685400
256  2 -0.5295 13.510900 18.377900 22.920400
257  2 -0.5884  0.938611 10.057700  0.961043
258  2 -0.5870  0.936625 10.089500 13.194200
259  2 -0.5907  0.939095 21.967100  0.956555
260  2 -0.5882  0.943149 21.976900 13.197300
261  2 -0.5899  5.142750 10.078100  0.971454
262  2 -0.5908  5.132670 10.085900 13.190300
263  2 -0.5874  5.135790 21.971900  0.978013
264  2 -0.5930  5.138000 21.973600 13.192800
265  2 -0.5896  9.324560 10.064300  0.952039
266  2 -0.5876  9.315720 10.086100 13.194800
267  2 -0.5943  9.322810 21.978500  0.954935
268  2 -0.5865  9.321510 21.969200 13.206800
269  2 -0.5918 13.516700 10.070400  0.967067
270  2 -0.5880 13.518100 10.077300 13.193100
271  2 -0.5868 13.512100 21.971900  0.979236
272  2 -0.5904 13.512400 21.975700 13.193400
273  2 -0.5940  3.036860  1.251970 11.279000
274  2 -0.5916  3.043480  1.239320 23.509000
275  2 -0.5925  3.047120 13.137600 11.278300
276  2 -0.5934  3.035560 13.138400 23.512900
277  2 -0.5928  7.228180  1.252150 11.277800
278  2 -0.5917  7.232930  1.251530 23.522600
279  2 -0.5922  7.228860 13.151200 11.284600
280  2 -0.5936  7.236300 13.143200 23.517400
281  2 -0.5961 11.416100  1.245290 11.285200
282  2 -0.5904 11.413900  1.244080 23.510900
283  2 -0.5922 11.420500 13.147000 11.279600
284  2 -0.5922 11.411500 13.132000 23.512400
285  2 -0.5923 15.618500  1.253200 11.283700
286  2 -0.5925 15.613100  1.246920 23.522100
287  2 -0.5922 15.616400 13.136100 11.285100
288  2 -0.5938 15.614100 13.139600 23.519100
289  2 -0.5897  3.042340  4.139220  5.144020
290  2 -0.5890  3.041460  4.145500 17.399000
291  2 -0.5906  3.031040 16.033500  5.150490
292  2 -0.5885  3.042840 16.041700 17.384100
293  2 -0.5903  7.226070  4.128610  5.157240
294  2 -0.5889  7.225470  4.150690 17.399300
295  2 -0.5902  7.237130 16.035200  5.161340
296  2 -0.5886  7.221810 16.034200 17.390300
297  2 -0.5901 11.410900  4.131560  5.146770
298  2 -0.5876 11.421000  4.144060 17.391400
299  2 -0.5893 11.416700 16.033000  5.153080
300  2 -0.5889 11.419000 16.034400 17.380400
301  2 -0.5881 15.612200  4.137880  5.155330
302  2 -0.5882 15.610200  4.145700 17.393900
303  2 -0.5894 15.623100 16.020900  5.161790
304  2 -0.5884 15.607300 16.026800 17.389200
305  2 -0.5937  0.936261  7.206190  7.064280
306  2 -0.5920  0.936918  7.199980 19.300100
307  2 -0.5928  0.939990 19.088500  7.077980
308  2 -0.5938  0.940492 19.102800 19.298000
309  2 -0.5911  5.142840  7.197640  7.083980
310  2 -0.5945  5.133620  7.201830 19.301800
311  2 -0.5922  5.121760 19.107200  7.082780
312  2 -0.5960  5.142920 19.090500 19.309800
313  2 -0.5942  9.317490  7.202070  7.057310
314  2 -0.5922  9.326170  7.209950 19.318200
315  2 -0.5927  9.328250 19.100500  7.079030
316  2 -0.5950  9.323800 19.106100 19.296600
317  2 -0.5907 13.526800  7.193670  7.077420
318  2 -0.5937 13.514300  7.204010 19.301000
319  2 -0.5926 13.513100 19.084500  7.077750
320  2 -0.5941 13.511400 19.098300 19.311900

