Generated by pymatgen.io.lammps.data.LammpsData

320  atoms

  2  atom types

0.000000 24.637781  xlo xhi
0.000000 17.058433  ylo yhi
0.000000 27.370788  zlo zhi

Masses

1  208.9804
2   78.9600

Atoms

1    1  0.6945  5.330540  3.956350  3.775350
2    1  0.7040  5.860190  3.971170 20.116900
3    1  0.7743  2.483720  9.686950  3.992540
4    1  0.7730  0.153401  6.463310 19.602900
5    1  0.6284 12.796200  7.558940  7.166540
6    1  0.8215 10.069500 17.456300 10.538200
7    1  0.7435 21.285500 15.039600  4.375270
8    1  0.7915  7.506790  8.459610 11.221200
9    1  0.7300  4.700950  7.415860  8.069250
10   1  0.6703 19.649100  1.976800 22.493400
11   1  0.6651 22.169400 10.435400 10.657300
12   1  0.5427  1.663010 17.257100 23.263000
13   1  0.7539 14.003400  2.805070 17.283800
14   1  0.6191 17.595100  4.587060 24.084500
15   1  0.6398 15.268300 14.086500 12.408500
16   1  0.7911 15.194100 14.660400  0.016571
17   1  0.6499  7.544780 17.649400  4.875880
18   1  0.7333  9.214690  8.858010 22.410600
19   1  0.5663  4.180500 16.281400  0.974485
20   1  0.5208  4.332420 14.767600 25.292700
21   1  0.7118 17.058000  9.768030 11.176700
22   1  0.7603 16.195100 15.392400 16.323600
23   1  0.7123 18.471600 12.560900  0.582701
24   1  0.6461 14.144200 11.684800 18.690800
25   1  0.4834 -2.181330 16.725400 13.062800
26   1  0.7094 15.318000  2.027000 25.874800
27   1  0.7186  3.610420 12.473000  7.149070
28   1  0.7318 -0.186852  9.392930 23.019200
29   1  0.5679 14.203600 16.260300  9.931460
30   1  0.7616 10.700500 18.422700 19.844000
31   1  0.8097  1.882990 15.640000  9.388040
32   1  0.7010  9.888730 10.684800 19.343500
33   1  0.7169  2.584900  4.713380  6.816560
34   1  0.6590 17.492300  2.853280 20.012900
35   1  0.6045  0.741329 14.675500  5.037430
36   1  0.6847 -0.533607 14.079100 14.756000
37   1  0.5929 12.650100  6.192480 11.443300
38   1  0.7848  8.182120  6.367830 16.974200
39   1  0.4080  9.942980  3.582970  3.679750
40   1  0.7176 12.608400  9.052320 16.229500
41   1  0.6933 -2.041290  1.973950  7.520780
42   1  0.4969  1.272060  3.313980 22.485200
43   1  0.4691 21.431000 14.931300 10.728400
44   1  0.7407 21.805100 11.295800 25.235300
45   1  0.7823 12.950800  5.704610 15.423000
46   1  0.6897  8.531610  7.860630 26.970100
47   1  0.7847 13.060000 16.232500 14.053200
48   1  0.6624  9.001590 11.339200 25.855900
49   1  0.7072  7.712700 11.277000  7.654960
50   1  0.6968  5.232130  7.321490 19.460400
51   1  0.8213  3.913770  4.104470 26.724100
52   1  0.6159  3.350630  9.485670 15.388100
53   1  0.4974 20.709000 18.355200 11.016200
54   1  0.7815 10.624400  5.233270 24.555500
55   1  0.6938 -1.660030 11.180200  7.635880
56   1  0.5821  1.728320  2.169700 18.961500
57   1  0.7572  6.715190  7.634930  4.396950
58   1  0.6684  4.973000  1.876900 23.553700
59   1  0.5616 -0.816153  5.812700  8.007980
60   1  0.5457  5.029010 11.269700 26.300600
61   1  0.7923 17.121500  2.689800 12.385400
62   1  0.6475 17.978200 15.521800 22.412500
63   1  0.6023 13.348900 13.864800  9.212970
64   1  0.7118 17.991100  8.588910  0.270294
65   1  0.7214  0.388358 13.225700 24.735300
66   1  0.6471  4.471150  5.016230 10.954600
67   1  0.5908 -0.768489  2.006000  0.164070
68   1  0.6050  1.345410 17.390800 12.769500
69   1  0.7361  4.496720  9.616910 23.636900
70   1  0.7385  8.255500  1.998700 17.019300
71   1  0.5320 15.702300 12.546800 24.080100
72   1  0.6475  8.794790 15.710500 14.129300
73   1  0.8521  6.984100  5.240630 24.725000
74   1  0.6396 10.594100  2.377830 15.265300
75   1  0.4858  6.928590 15.108800 27.231100
76   1  0.7851 10.006600 13.198900 11.262300
77   1  0.7849 -0.188843  9.181450  1.043260
78   1  0.6995  3.542520  5.377730 16.961200
79   1  0.7422 20.409800 17.838600 26.787900
80   1  0.6894 19.242500  2.445860 16.503900
81   1  0.6397 -1.967690  4.453120 24.739200
82   1  0.5183  2.818980 14.710200 14.298300
83   1  0.6085  1.203100 14.407500  1.742330
84   1  0.7068  2.725720 17.438100 16.442200
85   1  0.5216 10.607400  4.533530  0.985724
86   1  0.7345 16.512300  5.111730 17.366300
87   1  0.7833 14.609300  8.847170 25.753600
88   1  0.7137 14.608300  9.859310 13.792500
89   1  0.5349 14.225300 15.639100 23.386200
90   1  0.7201  9.053220  4.180170 11.800800
91   1  0.8092  2.864610 15.280100 19.808400
92   1  0.8538  8.761680 10.908900 14.577400
93   1  0.7842 20.791200  7.195400 21.502600
94   1  0.7060 21.466900  4.426870 12.745800
95   1  0.7233 21.879600 13.612500  0.898510
96   1  0.7987 -0.367727  6.774230 13.375500
97   1  0.6013 20.698100  6.824330  8.233180
98   1  0.7938  1.926010 10.345200 20.025800
99   1  0.8132  6.061950 13.978800 10.366600
100  1  0.7838 20.107500 15.551800 18.523600
101  1  0.7290 12.457300 12.427500 14.726600
102  1  0.7437 14.557900  4.359450 22.927900
103  1  0.6220  9.880950  5.503160  7.560310
104  1  0.3474 11.509400  1.418450  1.426360
105  1  0.6910 13.926900  3.240530 13.051400
106  1  0.4703  5.838170 14.511700 14.917500
107  1  0.6926  5.483010 17.770600 13.641400
108  1  0.7787  7.741660 15.342000 18.507900
109  1  0.7586 18.101400  9.470060  6.609650
110  1  0.8181 11.901600  7.164120 18.996300
111  1  0.7691 18.773300 12.587500  9.369330
112  1  0.7335 18.209600  6.401680 13.459800
113  1  0.6634  1.161490  3.653590 10.208800
114  1  0.6567 -0.617279 15.906800 26.438300
115  1  0.7683  1.105220 10.811100 11.085000
116  1  0.6851  4.512730 12.116400 17.693300
117  1  0.8339  6.686340  2.361980  8.013680
118  1  0.6942 10.438400 14.496700 26.475200
119  1  0.8118 20.095800 10.840400  3.394410
120  1  0.4969 12.828000 13.511100 21.444400
121  1  0.6883  3.846000  8.004180  0.884607
122  1  0.6710 11.778300  1.355040 25.392300
123  1  0.5438 11.025100  9.013430  9.775440
124  1  0.6087  7.978200 14.914900 22.392200
125  1  0.6630 -0.482210  6.713050  4.967850
126  1  0.6376 21.845000  3.905140 19.793800
127  1  0.5688 -1.504290 15.440700  7.786430
128  1  0.6231 14.808700 17.294800 20.356100
129  2 -0.4444  6.684790  2.049540 11.245600
130  2 -0.4960  8.657300  4.412440 18.966500
131  2 -0.5604  3.713720 16.007500 11.582100
132  2 -0.7182 -1.787250  1.638230 25.004600
133  2 -0.5767 21.317300  7.114500 12.347000
134  2 -0.5516 18.333600 11.005000 25.349200
135  2 -0.1792 21.945900 12.947100 15.957400
136  2 -0.6294 16.278300 14.133100 19.527600
137  2 -0.4047 15.994500  8.353920  8.561240
138  2 -0.6011  4.131320 17.773800 18.959400
139  2 -0.4514  5.301360  9.716060  9.612830
140  2 -0.4669  2.695090  8.004340 21.993700
141  2 -0.5844 15.041900  6.761970 14.347900
142  2 -0.7384  7.093350 10.445300 24.032200
143  2 -0.0709 16.240200 17.657100  7.103970
144  2 -0.5510 12.577100 17.591000 18.030200
145  2  0.1024 17.058500  3.689700  6.751110
146  2 -0.4007 -1.019510  9.891130 20.385300
147  2 -0.0882 14.652700 10.308400  4.643320
148  2 -0.7442  1.033100 14.150700 12.079600
149  2 -0.0285  6.127470 12.601200  3.689640
150  2 -0.6809 11.705900 15.648500 12.059800
151  2 -0.0919 16.569400 15.306800  2.806510
152  2 -0.5834  8.447960 13.511200 16.355800
153  2 -0.5252  6.780790  6.105340  1.596280
154  2 -0.0172 21.614600  8.603630 15.789500
155  2 -0.5077  4.941470  9.789280  5.415410
156  2 -0.5220  6.284440  8.850280 17.243200
157  2 -0.4016 10.325000 14.458300  8.411530
158  2 -0.6639 10.420800 10.562200 16.535000
159  2 -0.5261 20.861100  8.775310  5.901070
160  2 -0.4950  5.680040  3.625270 17.249600
161  2 -0.6270  0.540642  3.289200  7.443660
162  2 -0.6379  2.520460  1.670680 26.096800
163  2 -0.6687  8.717250 10.636700 10.636500
164  2 -0.5541  2.025010 11.594600 17.441200
165  2 -0.5485  3.201070  2.297610 14.198400
166  2 -0.5784 18.447000 18.318100 24.974600
167  2 -0.5292 -0.470217  9.330960  3.638130
168  2 -0.0728 18.999500  6.452020  4.082190
169  2 -0.4508  3.746710 12.431200 10.659000
170  2 -0.5252  6.748730 18.518000  1.171600
171  2 -0.5828  7.910710  8.001540  7.337450
172  2 -0.5631  5.096900  7.024220 25.977300
173  2 -0.5826 10.875900 16.384300 15.731100
174  2 -0.7601 12.920600  3.848660 25.456100
175  2 -0.6253 21.011700 13.570800  7.912060
176  2 -0.5246 11.188100  7.884100 24.845200
177  2  0.0248 10.702000 12.197500  5.090820
178  2 -0.7090 -1.643660  5.320260 22.066000
179  2 -0.4719  9.077120 12.765700  0.791362
180  2 -0.6325 17.288500 14.604400 25.790000
181  2 -0.3653  0.833984  6.755270 25.987500
182  2 -0.5228 10.401900 14.177900 19.785700
183  2 -0.7160 20.968400 11.054100  0.925960
184  2 -0.0705 20.775700 11.807400 20.738400
185  2 -0.3142 14.172900 12.229600  0.690264
186  2 -0.0535 17.998800 10.212700 20.223900
187  2 -0.4605  6.112580  2.773130 25.934700
188  2 -0.5918  7.984360 15.909500 11.196600
189  2 -0.2578 17.707400 17.677800  0.493843
190  2 -0.7265 11.802700  4.266280 17.059000
191  2 -0.2989 19.675700  4.395420  0.010775
192  2 -0.5098 12.611900  9.303710 20.691600
193  2 -0.0290  7.974010 11.387800  3.741030
194  2 -0.4991 -1.474070  1.352060 20.652400
195  2 -0.3519  4.453800 15.142700  8.317130
196  2 -0.6132  9.087410  8.369180 19.437700
197  2 -0.8112  9.137110  5.354440 26.556300
198  2 -0.4909  7.213580  3.149890 22.439000
199  2 -0.1218 14.134600  7.675090  1.840300
200  2 -0.5521 11.566500 16.114400 23.019600
201  2 -0.3947  3.095820 12.626400  4.037530
202  2 -0.3719 10.686500  5.938330 21.599900
203  2 -0.4793 10.530400  6.806190  4.834480
204  2 -0.7746  2.901570 15.025100 16.778800
205  2 -0.4482 21.868600  4.839090  6.160240
206  2  0.0129 -1.810200  9.989900 16.800700
207  2 -0.5490 13.605000 11.225500 24.973000
208  2 -0.7622 18.581200 17.492400 20.755000
209  2 -0.6997  1.195010  6.319080  9.506570
210  2 -0.5835  1.063090 10.352600 25.334500
211  2 -0.2481  0.054871 14.939100 18.561000
212  2 -0.3095 -1.576820  1.495900  3.795640
213  2 -0.6786 10.823300  5.275910 13.920300
214  2 -0.1606 12.840100 15.122900  3.225700
215  2 -0.5211 13.616200 14.228100 16.881100
216  2 -0.0099 16.043700 17.358700  3.310840
217  2 -0.6276 -0.580856  4.437400 13.358500
218  2 -0.5505  2.917610  5.171720  2.422630
219  2 -0.4348 -0.715107 10.200800 13.336300
220  2 -0.7285 -0.296208 12.972100  0.071232
221  2 -0.4308  7.404380  3.501940 14.450600
222  2 -0.7016 14.645900 10.906000 16.022800
223  2 -0.7835 15.100800 16.636000 12.694600
224  2 -0.2906  5.149660 15.536400  4.326280
225  2 -0.2929  7.153660 13.634900  6.762700
226  2 -0.7280 16.682000  1.835200 17.978500
227  2 -0.4292  3.601530  2.332550  9.681530
228  2 -0.5853 10.547600 12.653100 24.027000
229  2 -0.3972 21.928400  6.769650 18.567500
230  2 -0.3553  7.617060 16.935900  7.637830
231  2 -0.0403 21.375700  2.473860  3.501010
232  2 -0.6992 12.560900 12.941100 11.929500
233  2 -0.1252 12.005200  8.210840  1.839110
234  2 -0.5517  9.821190  3.032040  9.144190
235  2 -0.4276 -1.316540 12.500200 22.832300
236  2 -0.7102 19.621300  9.922750  9.130160
237  2 -0.5060 17.273200 10.552600  2.366850
238  2 -0.1235 15.771000  9.041090 19.441500
239  2 -0.3305  4.252660  1.606340  6.105780
240  2 -0.4224  0.760209  5.399970 16.942400
241  2 -0.6593  7.447350  5.876170 10.030600
242  2 -0.4519  5.160020  9.891140 20.377300
243  2 -0.7286  0.619059 13.210700  7.286850
244  2 -0.7941  1.789310 15.777000 25.600600
245  2 -0.4421 15.520700  5.075910 11.652900
246  2 -0.7646 15.226600 18.055300 23.001400
247  2 -0.7680 -0.599170 17.914400 10.414200
248  2 -0.7008 19.388000  2.380590 13.424100
249  2 -0.5897  5.573970  5.452500  6.479940
250  2 -0.4854  6.724370  7.108770 22.609100
251  2 -0.6710 -0.349496  9.454380  9.355560
252  2 -0.6365  4.221280 15.525400 22.673400
253  2 -0.7340 13.636700 16.531700 26.508800
254  2 -0.0130 18.965600 11.596200 16.899300
255  2 -0.4837 18.970300  4.672760 11.198200
256  2 -0.6462  9.142170 16.521200 25.686400
257  2 -0.1018 12.447700 15.075900  5.247300
258  2 -0.3547 15.739800  6.514190 22.517600
259  2  0.0502 14.788300 12.792700  4.858730
260  2 -0.6158 -0.846040 16.538200 15.238000
261  2 -0.7485 -2.046000 16.232300  1.708140
262  2 -0.4797 19.307900  5.587960 16.186400
263  2 -0.6762 16.309100 12.151600 10.324600
264  2 -0.4022 17.624700 13.475400 13.603800
265  2 -0.6811  7.683340  3.401550  5.587880
266  2 -0.5168  7.648040 18.008000 19.452000
267  2 -0.4982 21.573500 14.673300 25.419600
268  2 -0.3532 19.989600  3.481860  8.552790
269  2 -0.5131  6.889420 10.008400  0.836780
270  2 -0.6661 13.743200  7.098370 17.352400
271  2 -0.0956 14.206000  3.367240  5.459340
272  2 -0.2691 18.206400  7.957330 23.827500
273  2 -0.4695 16.175300  6.707880 26.597200
274  2 -0.4896  4.036520  4.549090 23.868100
275  2 -0.6878  2.665760  7.211820  5.461120
276  2 -0.0036 -1.361440 12.268400 18.629000
277  2 -0.5795 13.657500  8.785520 11.207100
278  2 -0.7439 15.588500  3.357660 15.079900
279  2 -0.7032 11.430300  1.705490 12.813100
280  2 -0.3746  9.407770  7.814710 14.792400
281  2 -0.2087 20.281200  7.471170  2.717330
282  2 -0.7283  2.462680  4.796920 20.008500
283  2 -0.4959 20.169800 16.740800  8.370000
284  2 -0.5056 18.909100 16.393000 16.114400
285  2 -0.3959 12.153300 10.975700  7.623120
286  2 -0.0831 17.016500  5.814290  8.511080
287  2 -0.0692  9.714310 14.094100  4.124090
288  2 -0.4887  5.407010 13.918700 19.602700
289  2 -0.3358 14.164800  1.933200  9.863790
290  2 -0.4436  3.001330 12.786200 21.627500
291  2 -0.5613 11.586300 10.064200 13.534900
292  2 -0.5350 22.008100  8.772350 23.814900
293  2  0.0507 17.855500  2.621520  2.276980
294  2 -0.3568 -2.121820  1.896810 17.498300
295  2 -0.5568 19.573300 13.805000  2.672660
296  2 -0.4044  2.541630  7.958580 12.099500
297  2 -0.5425 -2.082990 12.519500  4.765820
298  2 -0.7863 19.166700  4.749930 21.908800
299  2  0.0188 18.627700 17.702500  4.886660
300  2 -0.3382  5.872050  6.575520 14.738300
301  2 -0.3795 13.002500  4.756200  8.051420
302  2 -0.5271 15.272500  4.447770 19.815300
303  2 -0.3306 18.196200 11.992200  5.760510
304  2 -0.4226 12.364000  3.086010 21.408500
305  2 -0.6430  7.408920 13.070900 12.914200
306  2 -0.5126  2.476640 10.450700  1.204580
307  2 -0.3627  5.762230  9.897930 13.194800
308  2 -0.5690  4.053160 13.638400  0.964067
309  2  0.0168 19.610200  9.472580 18.991900
310  2 -0.1200 15.796200 14.685700  6.364550
311  2 -0.5456 20.644700 12.727300 11.926900
312  2 -0.1963 21.051100 14.425000 21.220900
313  2 -0.6053  2.139470  8.021650 18.205000
314  2 -0.2970 -1.306310  6.138300  1.363910
315  2 -0.6886  6.333870 17.320900 16.174800
316  2 -0.2891 14.949200  3.348010  1.335960
317  2 -0.2371 17.519000  8.493720 15.444900
318  2 -0.0539 15.366300  5.247090  4.898340
319  2 -0.1197 18.803300 15.619500  5.594810
320  2 -0.4932  0.662637 16.978300  7.182440

