Generated by pymatgen.io.lammps.data.LammpsData

504  atoms

  2  atom types

0.000000 17.774667  xlo xhi
0.000000 21.986255  ylo yhi
0.000000 41.650458  zlo zhi

Masses

1  208.9804
2   78.9600

Atoms

1    1  0.5652  7.914690  8.502060 15.145300
2    1  0.8140  0.007054  0.734456  5.638610
3    1  0.2696  8.591420 21.407500 15.669500
4    1  0.3124 17.405600 12.610000 11.289600
5    1  0.0463  2.346200  8.535320 12.557700
6    1  0.5935  4.145160 17.994300 17.920200
7    1  0.6345  7.666970  5.412300 11.364700
8    1  0.2741  0.213591 10.887700 13.364400
9    1  0.7700 13.170900 14.588400 10.795700
10   1  0.2047  4.679750 15.686100 12.940700
11   1  0.5735 14.716400 12.435500  5.538500
12   1  0.7398 15.613000 17.280200 16.388000
13   1  0.4176 17.057700  6.413730 13.873800
14   1  0.5029  2.722870 10.269200 17.155900
15   1  0.0830  5.767670 13.237800 13.615400
16   1  0.5143  6.742720  4.842610 14.596300
17   1  0.6943 15.339500 19.876700 13.129700
18   1  0.3252  0.337144  0.573864 14.955300
19   1  0.2769  7.976720 15.036000 14.402600
20   1  0.6614  9.259530  7.833400 19.065500
21   1  0.6066 10.132300  0.474741 26.355900
22   1  0.6355 13.271900 16.554800 14.437300
23   1  0.6389  8.974500  3.728120  8.787190
24   1  0.5920 11.200600  0.704686 17.884500
25   1  0.6926  0.469973 19.002700 38.926000
26   1  0.3644  0.239892 17.927300  3.153400
27   1  0.4310 16.692700  7.561920 40.109400
28   1  0.7978  8.171190 21.621000  2.063650
29   1  0.5451  5.074150 18.736000  2.427990
30   1  0.3722  1.862200 20.246800  8.360150
31   1  0.6720  4.917970  0.671554  3.627870
32   1  0.8064  2.395020 10.083000  0.864876
33   1  0.5601  9.089200  8.613080  3.075180
34   1  0.0078  4.136160  7.878660 10.656600
35   1  0.3478 16.269600  7.660080 36.911000
36   1  0.3193 15.983900 12.946100  1.072540
37   1  0.6727  1.528540 19.955300 31.312500
38   1  0.4037  3.203980  7.279080 39.670800
39   1  0.7781 11.029100 19.623100  9.194810
40   1  0.7807  9.158260  7.153370  6.384790
41   1  0.5310  7.857740 10.423200 41.080500
42   1  0.7308  4.126080 11.487100 38.899400
43   1  0.6387  9.060330  1.664420 38.873000
44   1  0.3032 17.746800  2.190860 41.602800
45   1  0.3865 14.759400 19.291700  3.855130
46   1  0.2533  2.451260 15.986700  2.189460
47   1  0.3878 15.314600 16.160500  3.953270
48   1  0.7451 14.935100  2.981090  2.598710
49   1  0.5909  0.850432  6.506060  3.171650
50   1  0.2457  5.278820 10.587300 15.947800
51   1  0.0882  1.591130 13.750600  5.453080
52   1  0.2061  3.157380 11.343800  5.194860
53   1  0.3177  7.082170  8.664480 10.716700
54   1  0.4486  1.477580  0.349404  2.204280
55   1  0.3086  0.427420  9.869790  6.284950
56   1  0.6746 13.058200  9.734600 17.675100
57   1  0.3953  5.261160  4.098640  9.470290
58   1  0.1382  4.549680 12.996400  7.887250
59   1  0.6601  4.021420 14.778700 39.596200
60   1  0.4924 13.285400 18.203600  0.409642
61   1  0.6890 11.187600  3.340350  4.852010
62   1  0.4857 12.301300 18.587800  5.863390
63   1  0.6612 15.561600  7.664030  8.095850
64   1 -0.0639  4.205040  6.113920 37.180800
65   1  0.3123  5.630520  9.892600  7.266930
66   1  0.7307 15.249000 14.586800 40.037200
67   1  0.0688  3.288380 15.499300  9.412090
68   1  0.4647 14.334700 20.780000  0.279078
69   1 -0.0128  2.124090 16.443700  5.464740
70   1  0.3800 16.682400  5.070460  0.216733
71   1  0.6577 12.526700  6.775150  4.801880
72   1  0.3834 16.797100 15.819600 10.656200
73   1  0.4136  6.109450  6.424900 39.860700
74   1  0.6447  4.815010 20.575900  8.839340
75   1 -0.0606  2.102290 11.419700 11.629300
76   1  0.6972  7.059340  2.998500  5.815870
77   1  0.7820 12.252800  5.367630  9.660480
78   1  0.0819  1.063920  9.112100  9.745070
79   1  0.0616  2.534950 13.397000 13.834100
80   1  0.5706  9.275520 14.653200 11.865500
81   1  0.7496  5.275120  7.924970  2.004400
82   1  0.5253  9.160520 13.239900  0.326139
83   1  0.5892  5.882450  6.941940  5.057360
84   1  0.6533 12.363900  9.766900  2.713320
85   1  0.8969 16.290300  4.179440  5.773030
86   1  0.2370  2.811360  1.989770  0.517053
87   1  0.6338  2.596740  3.793420  5.139600
88   1  0.0294  2.447330 11.122600  8.174820
89   1  0.6126 15.734400 20.733700  8.627010
90   1 -0.0067  5.007270 10.744400  9.725300
91   1  0.5747  2.734810 17.101200 20.496000
92   1  0.8175 13.196700  0.885011 11.797100
93   1  0.1641 17.550300 11.992000  3.967980
94   1  0.5190 16.565100  8.644570  3.523480
95   1  0.6915  9.864360 11.990600  8.673220
96   1  0.2859  0.187109 19.483600  5.996100
97   1  0.5087  8.326140 13.738400 22.035000
98   1  0.7251  9.231510 19.452200 21.944400
99   1  0.3142  2.531540  6.774000 18.334400
100  1  0.8974  1.869530 13.257400 19.464500
101  1  0.3175  2.574360 12.517200 33.190400
102  1  0.6756  3.731520  5.556710 22.049200
103  1  0.7191  5.276650 21.151700 21.095600
104  1  0.2454  0.135549  3.669040 11.464600
105  1  0.3729  5.117130  1.611640 29.598900
106  1  0.2363  9.012890  4.807170 34.763400
107  1  0.5908 14.248400 11.940500 26.442200
108  1  0.6836  8.696170  7.876380 28.373000
109  1  0.5982  7.213490 16.147000 25.100200
110  1  0.4362 10.333900  6.405680 21.877900
111  1  0.7766 11.844000  5.267410 28.400200
112  1  0.6282 14.104400 14.706700 29.136400
113  1  0.6609  0.967812 15.302400 28.483100
114  1  0.5989 15.171600 11.194800 29.818400
115  1  0.7159 12.824200 16.111300 20.361700
116  1  0.5455  8.133920 19.781300 28.511000
117  1  0.0522  4.175640  3.475710 32.305000
118  1  0.2927 17.416300  1.260730 19.067000
119  1  0.3912  8.577470 15.536900 19.156400
120  1  0.7285 12.211200 10.485200 20.904800
121  1  0.6725  7.520250 15.195500  6.956940
122  1  0.1037  3.010380  0.784871 15.276700
123  1  0.1207  1.506090  6.522240  7.954760
124  1  0.0723  2.236430  5.615690 12.416100
125  1  0.3523  5.907850 20.208500 16.325900
126  1  0.8125  6.532950  2.160820 22.839500
127  1  0.0488  1.913330  5.154540 15.563300
128  1  0.2185 17.277200  3.623520 16.390700
129  1  0.4537 15.617400  5.716850 11.085500
130  1  0.5832  8.557850 11.639800 17.321200
131  1  0.5404 15.748100 -0.049629 22.104400
132  1  0.7224  8.144800 22.125800  9.174710
133  1  0.2461  4.138070  5.461040  7.168860
134  1  0.7290 12.157100 13.085400 18.010900
135  1  0.0933  2.190150  2.605890 13.283700
136  1  0.3087 10.887400 18.493100 14.480500
137  1  0.4563  1.197600 21.187400 17.655200
138  1  0.5277 15.652800 17.715200  7.287750
139  1  0.7890  1.769490 11.517800 26.089700
140  1  0.4708 12.217200 19.122600 19.001000
141  1  0.6639 15.319300 12.091600 22.158900
142  1  0.3990  1.001690  9.132300 21.582400
143  1 -0.0666  1.806050  2.360900 17.660400
144  1  0.5614 16.915200  9.248290 18.835300
145  1  0.9216 12.742600 11.708600 13.628200
146  1 -0.0946  3.944350 13.272200 11.241600
147  1  0.4394  7.454750  6.004330 23.620200
148  1  0.6059  6.465710 10.240400 21.129700
149  1  0.4725  5.741490 14.487900 20.132100
150  1  0.3875 15.975100  5.011220 22.378100
151  1  0.1816  3.863760 18.141200  6.893930
152  1  0.7430 14.112200  2.886460 15.449300
153  1  0.8268  8.161300 11.753600 27.533000
154  1  0.6689  6.242800  9.866780 24.448000
155  1  0.4729 13.055700 20.208100 15.730800
156  1  0.7076  6.413030 20.770000 25.455600
157  1  0.7013  7.922360  0.905153 20.029800
158  1  0.7579  0.681096 14.827400 22.668300
159  1  0.4389 17.255600 14.211800 14.490500
160  1  0.6021  7.630640 17.155000 10.084300
161  1  0.3386  5.380540  1.964400 17.870900
162  1  0.4855  1.455260 21.145600 23.063300
163  1  0.2102  7.769250 18.165000 17.298500
164  1  0.2207 15.809300  7.837630 22.090100
165  1  0.5129  4.206400 14.689600 24.490900
166  1  0.1492  0.807022 15.398200  8.039020
167  1  0.2708  7.133810 12.878300 10.400100
168  1  0.5116  6.827540 20.587700 12.690400
169  1  0.5502  3.242460 17.626000 23.779100
170  1  0.6792  3.371310  6.145970 26.169500
171  1  0.4942  6.163120  5.564070 19.487900
172  1  0.4069 16.704800  9.739100 23.601300
173  1  0.2839 -0.622866  6.311900 19.700200
174  1  0.3815  1.503430 18.000500 11.012200
175  1  0.2863  0.429500  1.401640 22.127000
176  1  0.7615 11.737800  9.862740 29.066600
177  1  0.7912  4.581180  9.650030 28.878900
178  1  0.5150  6.481100  4.339740 27.084400
179  1  0.2696  2.488980  1.152380 20.092800
180  1  0.0499  5.248810  9.597040 13.150700
181  1  0.5750 12.918900 18.760700 22.017200
182  1  0.4662  4.708260  1.613250 11.389900
183  1  0.7916 12.958100  7.365200 14.658800
184  1  0.2513  6.979790 13.800400 16.559800
185  1  0.1018  7.867650 18.259400 14.480200
186  1  0.2297  2.165010  4.020500 19.786600
187  1  0.7585 12.095200  4.981220 19.563800
188  1  0.6907 13.273000  2.105420 20.796300
189  1  0.7135 15.926000 12.835900 18.618800
190  1  0.7912 -0.019237  8.313100 28.136200
191  1  0.6978  1.018520 19.407800 14.966600
192  1  0.7454 13.201900 10.330800  7.985640
193  1  0.6360 11.531000 14.639900 32.276700
194  1  0.4523  5.843000 12.262600  1.597090
195  1  0.6887 12.749600 20.397700 38.712100
196  1  0.4062  2.028990 21.338100 40.753300
197  1  0.1912  2.970170  8.487240  5.933730
198  1  0.4613 12.428100 11.970100 40.451800
199  1  0.7409  9.558790 19.513800 36.409600
200  1  0.8754 11.216300  2.237280  1.005770
201  1  0.6561 13.150700 21.758500  5.981860
202  1  0.6067  7.833210 12.190000  4.370500
203  1  0.7097  7.711890 20.107200 39.349700
204  1  0.6131 12.051600 14.800800  5.183540
205  1  0.5875 10.770200  7.950180 40.907000
206  1  0.6673  9.048820  5.388130  1.017100
207  1  0.2477  2.078180  3.972910 40.564200
208  1  0.7583 11.661200 16.345000 37.087800
209  1  0.7249  9.922570 16.657100 40.975700
210  1  0.1966 -0.112791 14.636500  3.359640
211  1  0.5732  6.425860  3.463850  0.638314
212  1  0.4970  9.425340  4.709730 31.039500
213  1  0.6275 11.979600 17.332700 30.453000
214  1  0.3597  0.172397 10.859500 35.385300
215  1  0.4401 11.186200 20.281500 -0.070270
216  1  0.4997  0.744930  2.839320 31.839400
217  1  0.7149  0.859644 16.929300 34.224100
218  1  0.7290 17.009800  1.407690 27.571500
219  1  0.2500 17.710600  3.776590 35.678900
220  1  0.3318  4.940920  5.309700 29.883900
221  1  0.1964  1.569570  8.610080 33.897800
222  1  0.8077  2.471020 19.940100 27.203600
223  1  0.7322 16.180800 22.034700 32.007200
224  1  0.6071 15.146700  6.025900 25.719600
225  1  0.2588 16.224300  4.718100 38.220100
226  1  0.6263  8.025280 16.503200 30.188100
227  1  0.6342  5.263220 17.292000 28.493000
228  1  0.2508  5.384460  3.851770 39.036100
229  1  0.4052  8.228980  2.354420 28.622500
230  1  0.0354  6.488410  5.260550 32.457000
231  1  0.6551  5.217440  0.807931 37.298000
232  1  0.6403 11.087300 12.449300 24.769300
233  1  0.2535  8.745430  8.798920 22.767800
234  1  0.4503 11.332100  8.921800 37.011100
235  1  0.7086 11.148300 18.609700 25.562600
236  1  0.7244 14.596900 10.517700 33.765800
237  1  0.6678 10.343700  1.890910 23.056500
238  1  0.6376 15.264800 14.424000 25.322000
239  1  0.8482 15.041200 16.853000 33.240000
240  1  0.4906 10.285900  7.286350 24.899800
241  1  0.7619 14.168900 17.438800 36.760300
242  1  0.6987 13.279900  3.036100 33.272100
243  1  0.1412  5.887070  7.312110 34.891300
244  1  0.6046 14.183700 10.007400 40.941000
245  1  0.7845  7.999090 13.303300 37.902400
246  1  0.5080  3.244330 19.242400 41.582300
247  1  0.4652  6.561500 15.680200  0.537473
248  1  0.2797  2.602920  2.714170 35.102500
249  1  0.1807  2.611270  9.148310 36.916300
250  1  0.6049  9.467830 11.016500 34.741900
251  1  0.7031 14.408800  6.654510 30.349300
252  1  0.5315  5.078940 11.220600 34.971800
253  1  0.7302 10.462200  1.289360 35.314100
254  1  0.7172  7.109160 14.912200 34.063400
255  1  0.7146 12.571000 12.274100 37.055600
256  1  0.3125  0.329708 10.854100 31.646000
257  1  0.4982 15.502900  5.688690 34.043300
258  1  0.5653 11.399700  5.257790 37.843000
259  1  0.7146 -0.257018 13.602900 37.330800
260  1  0.8527 12.252900 21.687100 31.598800
261  1  0.7458  6.596150 11.677600 31.935900
262  1  0.4485  0.682087  4.050020 25.084900
263  1  0.0335  2.605300  5.628180 34.555800
264  1  0.0025  5.951290  4.000900 35.007200
265  1  0.4046  2.684850 15.216400 31.249500
266  1  0.6096  0.776178 13.423300 40.802200
267  1  0.2501  0.615990  6.931320 23.716800
268  1  0.7240  9.347130 17.991400  3.679750
269  1  0.2862  4.946830 16.908200  4.514700
270  1  0.8157  4.785790 16.766000 36.702900
271  1  0.4782  3.364800  0.175179 32.755900
272  1  0.7003 13.679300  0.515291 25.922700
273  1  0.5146  9.747890 17.271800 33.697800
274  1  0.7359 11.918900  8.692200 33.440600
275  1  0.4196 17.710000 14.281500 32.248600
276  1  0.5895  3.347830  1.675560 24.780800
277  1  0.4161  7.742540  0.394702 30.978100
278  1  0.5631 16.699400 19.296300 -0.013992
279  1  0.0982  7.445490  5.591510 37.113700
280  1 -0.0961  1.119380  6.439020 37.149900
281  1  0.7421  2.292400 19.467500 36.174500
282  1  0.8130 15.299600 21.088400 35.712700
283  1  0.7211  6.187690 20.062900 34.591900
284  1  0.7994 -0.378903 18.035900 20.383500
285  1  0.3654  4.052870  7.414110 32.548000
286  1  0.3430  2.100980  3.778390  8.515460
287  1  0.7147 14.699200 18.938400 27.101400
288  1  0.4667  4.003020 13.594700 29.056000
289  2 -0.6183  1.608130 10.815000 39.602400
290  2 -0.5709 14.411800  4.943440  8.162370
291  2 -0.5906  3.907190  4.766150  1.142480
292  2 -0.5186 15.422200 11.204900 36.673900
293  2 -0.7670 14.419300 18.894900 39.870500
294  2 -0.8736 -0.594660  7.003620  6.227820
295  2 -0.6675  6.956030  0.426458 40.367300
296  2 -0.8684  7.046990  5.565140  7.767440
297  2 -1.0522 14.905100 20.047000  6.484000
298  2 -0.4952 10.178700 11.253900  5.678200
299  2 -0.6225  4.612480  9.199000 40.949500
300  2 -0.7775 17.075300 21.102100  3.505840
301  2 -0.6322  1.960500 16.832900 36.799500
302  2 -0.5596 13.352600  7.760290  1.007240
303  2 -0.6934  9.039660  2.417600  2.362630
304  2 -0.8583  8.344930  4.530310 39.803900
305  2 -0.8153  2.433360 12.545700 35.811400
306  2 -0.6776 12.069400 19.536900 36.111200
307  2 -0.5568 12.919100 15.277300 40.688200
308  2 -0.6468 17.686000  2.890420  7.333180
309  2 -0.8147  4.318800 10.266700  3.018450
310  2 -0.8260  7.755470  7.780180  0.371734
311  2 -0.6655 10.327000 20.742500  3.435260
312  2 -0.3198 14.022300  1.568940 38.043100
313  2 -0.8625  2.698700 19.997000  3.064560
314  2 -0.4923 10.845400 16.850600 10.877100
315  2 -0.6310 16.189200 12.189400 39.085500
316  2 -0.6882 17.391500 21.628200 39.827900
317  2 -0.5846  5.832680 13.877000 36.792500
318  2 -0.6097 10.619500 16.689100  6.254490
319  2 -0.5410 12.294000  4.400110  2.091970
320  2 -0.4506  7.278360 22.309000  5.346590
321  2 -0.7040 11.994600  3.452680 35.812400
322  2 -0.6292 12.341900 12.484900  2.171300
323  2 -0.8438 16.298400 16.981300  1.289900
324  2 -0.9252 16.317100 15.452400  6.144980
325  2 -0.6295 11.387600 15.993000  1.977200
326  2 -0.6930  8.609190 18.713100  0.882591
327  2 -0.7436  7.593500  9.310010  5.398450
328  2 -0.7466 16.053300  2.088520 13.726800
329  2 -0.5803 13.741400 14.720300 37.148900
330  2 -0.5620  2.745800  0.751577  8.634160
331  2 -0.7276 10.912200  4.692440  6.856560
332  2 -0.6004 11.174800  0.333183  9.213420
333  2 -0.4516 11.176600 11.241700 11.398200
334  2 -0.4300  6.560470 19.117900  6.022120
335  2 -0.8703 10.380000 10.315500  0.719463
336  2 -0.5197 14.815900  2.117080 -0.169420
337  2 -0.7063  9.323800 14.636600  9.179700
338  2 -0.5408 12.791300 19.313600 11.886100
339  2 -1.0253  5.534850  5.356220 12.390200
340  2 -0.3935 12.084200  5.203780 40.637100
341  2 -0.5343  5.352850  3.901700  3.568280
342  2 -0.4112  9.075220 19.348900  7.361700
343  2 -0.5668  2.924280  0.947044  5.801650
344  2 -0.5979 14.769000 12.382000 11.857300
345  2 -0.6994 -0.063471 20.115500 11.508100
346  2 -0.8346 16.154500 16.757700 13.789300
347  2 -0.7643  1.536500  6.703540 41.670300
348  2 -0.5685 13.634100 13.093000  7.752070
349  2 -0.6711  8.796390 19.908200 11.263800
350  2 -0.6894  3.197630 21.759500 35.728400
351  2 -0.8060  3.276250  6.323770  4.275820
352  2 -0.5482 11.892200 14.371900 13.485900
353  2 -0.5028 16.615600 16.556700 38.838800
354  2 -0.4805 18.282000 15.062800 17.890100
355  2 -0.3653 14.842900  1.744760  9.081150
356  2 -0.7456 15.237500  3.992680 19.914800
357  2 -0.4023 10.348700  5.899480 17.266400
358  2 -0.6314 14.684200 17.383500  9.728550
359  2 -0.4928 14.509400  1.978770  5.952880
360  2 -0.7013  6.098990  1.781510  8.097580
361  2 -0.9175 14.788300 10.623900 20.146200
362  2 -0.8150  3.882440 20.766500 18.043100
363  2 -0.6857 14.722900  5.288610 13.709400
364  2 -0.6477 16.666500 11.388400  7.798020
365  2 -0.6069 11.126700 10.977900 16.357400
366  2 -0.7021 10.101600 10.054800 26.603200
367  2 -0.4471  3.556070 11.314800 19.813300
368  2 -0.7772  4.112900 14.249300 17.890500
369  2 -0.5387 12.888700  3.958130 22.899600
370  2 -0.7890  7.225230 12.610100  7.128160
371  2 -0.5903 11.155700  8.271690  7.135350
372  2 -0.8213  5.029360 17.633000 10.402900
373  2 -0.7855  7.317110 15.846200  4.037060
374  2 -0.6404 15.153900  5.661420  3.712600
375  2 -0.4556 10.339300  8.241380 13.326800
376  2 -0.5777  9.974700  6.553140  9.897820
377  2 -0.7074  8.565680 12.564000 13.745400
378  2 -0.7372 14.122500  9.398440  5.178880
379  2 -0.3853 11.939100  3.507010 12.030400
380  2 -0.5247 14.604900  9.750530 14.767000
381  2 -0.6230 12.844300  9.714360 23.647000
382  2 -0.6763 15.681100  8.588810 26.176400
383  2 -0.5913 14.775900  8.575710 10.586800
384  2 -0.7725 16.121800 20.188500 15.530200
385  2 -0.6327 15.547000 20.692700 20.017800
386  2 -0.5512  7.781540  4.071120 17.609200
387  2 -1.0417  1.262700  4.199090 22.190200
388  2 -0.5102 13.916100  6.657280 17.389700
389  2 -0.7436 10.264100 17.515400 20.815500
390  2 -0.6311  4.336490 20.845600 11.613800
391  2 -0.6523 10.106400 14.531800 16.797200
392  2 -0.5827  2.290800  8.633150 25.965800
393  2 -0.7401  3.524680  7.728090 20.629200
394  2 -0.7768  7.994230 21.884800 22.787500
395  2 -0.8284  3.041100 14.696600 21.646600
396  2 -0.5694 15.333100 16.647900 19.021000
397  2 -0.8807  9.119250 20.875200 18.699900
398  2 -0.6138  8.170280  1.796780 11.461800
399  2 -0.7325  3.125310 17.345500 27.009400
400  2 -0.7366  0.369827  8.120900 16.321100
401  2 -0.2605 10.824100  3.694090 15.066800
402  2 -0.7301 12.597600 13.539100 20.731300
403  2 -0.6960 13.740700  0.896052 18.394600
404  2 -0.6860 10.683000  2.890290 20.246600
405  2 -0.8356  2.478030 12.695600  0.908634
406  2 -0.5734 14.404000 13.494200 15.885400
407  2 -0.8588  5.226290  2.009750 20.669200
408  2 -0.6299  6.325430 18.488000 20.656800
409  2 -0.6286  5.771440 12.556400 22.240900
410  2 -0.7632 16.851700 13.563600 28.801600
411  2 -0.7077 16.779400 11.732600 25.486000
412  2 -0.5851  4.437260  7.735100 23.787300
413  2 -0.6893  0.305384 12.073700 21.844700
414  2 -0.5413 13.080700 16.388300 24.794800
415  2 -0.4950 13.020300  7.811740 27.023000
416  2 -0.7306  5.049020  4.037980 23.802400
417  2 -0.7052  7.982370  4.101850 21.558700
418  2 -0.7425  5.573250 20.100600 28.153400
419  2 -0.5181  9.815700 15.462500 23.570200
420  2 -0.6581  2.717030  0.216500 30.318500
421  2 -0.6856 12.275300 16.801900 17.265300
422  2 -0.5552  9.910530 13.204100 31.136600
423  2 -0.5425  9.848880  4.601770 25.311300
424  2 -0.7058  3.652370 18.992600 15.413300
425  2 -0.6698 14.471600 13.764700 31.958500
426  2 -0.5467  1.752030  0.349159 27.209300
427  2 -0.8138 11.952200 21.831600 24.183800
428  2 -0.7511  7.994020  9.291480 33.736500
429  2 -0.6630 12.307900 22.003500 14.136400
430  2 -0.6866 12.281900 12.772400 28.068700
431  2 -0.8927  9.171670 10.174700 20.245900
432  2 -0.7360  8.425220 18.905900 25.270600
433  2 -0.7529 12.064900  8.058310 20.255300
434  2 -0.4785 16.114400 16.784100 27.026100
435  2 -0.5890  1.288230 14.788100 25.772100
436  2 -0.8191  4.447600 10.157700 32.054200
437  2 -0.6457 10.396300 20.077300 30.273400
438  2 -0.4851 17.377200 20.582000 29.149200
439  2 -0.7019  0.343643 11.471500 18.032600
440  2 -0.7639  4.640030 19.870400 23.623500
441  2 -0.7104  6.150280  8.369060 26.609200
442  2 -0.6666  1.962110 10.758700 28.871500
443  2 -0.4530  4.136370 18.410600 31.240700
444  2 -0.8523  7.372680  9.005130 17.456100
445  2 -0.7118  7.425160  0.756947 33.836500
446  2 -0.8890  8.773750  4.884400 28.460800
447  2 -0.5803  4.909260 12.249000 26.864600
448  2 -0.7058  8.489310  5.473620  3.983850
449  2 -0.8216 16.375400  1.860440 25.133800
450  2 -0.7677  0.057790  2.748680  3.842620
451  2 -0.5345  0.299340 18.238500 17.896300
452  2 -0.6337 10.432200 16.430300 28.508300
453  2 -0.5207  2.904730  6.877100 28.967300
454  2 -0.6144 15.080700  1.594270 30.179400
455  2 -0.6831 12.966200  9.972840 31.497600
456  2 -0.5575 16.629000  5.324780 28.194600
457  2 -0.7593  1.714810 19.750600 20.870700
458  2 -0.6437  6.632370 14.795300 27.984200
459  2 -0.4958 10.056000 20.560700 33.903600
460  2 -0.6882 -0.017195 16.852900 31.414800
461  2 -0.5090 14.479000 18.385100 30.405000
462  2 -0.5005  4.029600 15.648600 33.714100
463  2 -0.6692 16.135200  8.735490 30.708700
464  2 -0.6440 15.913600 14.730700 21.957000
465  2 -0.7862  6.089420 13.271100 40.496400
466  2 -0.7316 13.151700  8.520600 38.703400
467  2 -0.5900  7.429580  9.742650 29.871800
468  2 -0.7101  9.764580 14.219200 39.416300
469  2 -0.3785 12.689300  4.262120 26.094400
470  2 -0.7702 17.478500  1.203860 34.051800
471  2 -0.7292 16.695900  9.846360  0.673677
472  2 -0.6613  7.984100 12.057000 24.817200
473  2 -0.5818 16.003800 19.584100 33.395500
474  2 -0.5173  6.743280 17.520100 32.642200
475  2 -0.6182 10.847800  2.019970 32.138300
476  2 -0.5802 15.056500 19.400100 23.311400
477  2 -0.7368  5.879870  1.598650 26.223800
478  2 -0.5197  3.017430  3.292290 27.777100
479  2 -0.5432  0.481178 18.643800 23.637100
480  2 -0.7033  6.479210 14.200400 31.547300
481  2 -0.6942 10.381400 14.062800 35.774900
482  2 -0.5687  4.159200 18.540200 34.501700
483  2 -0.7537 12.256000 10.979700 34.996800
484  2 -0.6154  7.800350 16.643700 36.157800
485  2 -0.5425  4.853730 19.872200 38.643900
486  2 -0.5789 16.845600 18.858000 36.644300
487  2 -0.7407  1.908320 17.044100 40.872200
488  2 -0.6921 11.322300  0.846199 40.423000
489  2 -0.7375  6.716620 10.784800 37.664000
490  2 -0.7657 12.689800 16.914600 33.606800
491  2 -0.8152 10.983800 18.296300 38.735200
492  2 -0.6409 12.927200  0.734807  2.550290
493  2 -0.6916  5.761850 20.843500  1.281610
494  2 -0.7251 14.388200  7.906070 35.253300
495  2 -0.6642 11.819600 20.507900 27.367100
496  2 -0.6777  2.799760  1.557430 38.259400
497  2 -0.6644 16.629700 15.462900 34.841300
498  2 -0.5998  5.860060 16.928400 39.828200
499  2 -0.7701  8.326790 21.608400 36.988800
500  2 -0.4862 11.490500  1.979850 28.521900
501  2 -0.6284 13.934600  0.263171 33.896200
502  2 -0.7076 13.115600  5.706400 32.700800
503  2 -0.6838  0.795953  6.070210 32.383200
504  2 -0.6580 10.943600  7.166450 30.235000

