Generated by pymatgen.io.lammps.data.LammpsData

320  atoms

  2  atom types

0.000000 16.864293  xlo xhi
0.000000 23.165087  ylo yhi
0.000000 24.472453  zlo zhi

Masses

1  208.9804
2   78.9600

Atoms

1    1  0.6093  4.265790 12.934900  4.284420
2    1  0.7213 10.569200 11.491500 24.225400
3    1  0.6172 16.289700  3.581020 16.030500
4    1  0.6345 16.660300  1.842550 19.938500
5    1  0.7308  9.392880 15.001700 14.326800
6    1  0.8509  7.450400 15.261800 18.046000
7    1  0.6312  6.974310  1.959460 12.213600
8    1  0.5662  1.508770  4.708020 18.949300
9    1  0.8722 15.630400 13.418100 10.703500
10   1  0.7113  6.536510 10.062400 23.933700
11   1  0.6402 10.909600  0.198315  9.375630
12   1  0.6759 16.063400 21.924100  0.713562
13   1  0.6567  1.144920 10.100800  6.031300
14   1  0.7276  9.460530  7.735640  2.338250
15   1  0.6592  0.667467 20.002000 11.576200
16   1  0.8095  2.263110  0.652012 23.948400
17   1  0.7686  5.722420  2.048240  4.309390
18   1  0.7632 15.903400  6.936290  8.657110
19   1  0.7579  6.657760  9.118290  3.994610
20   1  0.8231  4.400360  5.342470  7.991750
21   1  0.7470  8.217080  2.661730  8.462260
22   1  0.7886 13.392400  1.176060 23.260400
23   1  0.7987 11.203500 11.422300  3.950960
24   1  0.8094  6.353240  9.655710 11.752600
25   1  0.7737  7.218550  5.696910  4.252610
26   1  0.8554  0.674386  0.658885 13.277600
27   1  0.7824 13.345000 10.729200  7.136660
28   1  0.7205  7.320270 11.573300 15.473800
29   1  0.8691 14.064700  5.997530 22.263800
30   1  0.7529  4.284140 22.846800 11.664600
31   1  0.7737  3.845750  5.488890  1.008540
32   1  0.7711 -0.123886  6.915220 14.510900
33   1  0.7772  2.095580  7.031980 10.511200
34   1  0.7299  3.985300 22.559900 19.808300
35   1  0.7048 16.424300 16.928400 10.241300
36   1  0.8202  3.681200 20.115800 23.485300
37   1  0.7123  0.682646  2.420570  7.432750
38   1  0.8410  7.817430 10.859300 19.819700
39   1  0.7432  7.814020 17.499700 12.249800
40   1  0.6982  5.264650 21.671900  4.416850
41   1  0.7970 13.501600 20.881400  9.465990
42   1  0.8205  6.761770  5.083510 18.104700
43   1  0.7119  9.114200 21.313600 12.924700
44   1  0.7656  5.648280 17.137600 21.399700
45   1  0.6695  0.486139  6.170810  0.818824
46   1  0.7617 14.084300  4.729680 18.811600
47   1  0.7532  2.487400 19.327000  7.692670
48   1  0.6774  0.065065 12.308100 15.233500
49   1  0.7951 14.931000 10.177500  3.713190
50   1  0.5892  2.715940  4.495180 16.069300
51   1  0.7880  6.542150 18.468600  7.868680
52   1  0.8283  4.443450 16.686600 15.789300
53   1  0.7235 10.612300  8.616730  7.392300
54   1  0.7126  8.186650  7.813720 15.985700
55   1  0.6832  3.615530 15.320100  1.076460
56   1  0.6917  9.476840 17.456500 20.815300
57   1  0.6650  9.922110  7.762960 12.452100
58   1  0.6939  3.511000 12.361100 16.844700
59   1  0.6902  8.462230 20.938700  4.343110
60   1  0.6972  9.740360  0.346374 15.580600
61   1  0.7844 15.111000  6.186980  4.594400
62   1  0.7044 12.583200  5.956350 15.549000
63   1  0.8059  2.076020  9.467720  2.036320
64   1  0.7869  9.256200 21.745600 22.030600
65   1  0.7155  2.854680  3.774160 11.640200
66   1  0.7590 14.339400 22.319400  5.733400
67   1  0.8271  8.428550 15.720700  5.849220
68   1  0.7270 13.475700  9.543730 16.556800
69   1  0.7016  5.468330  0.247020  8.525550
70   1  0.8372  0.978542 22.547200  4.268910
71   1  0.7781  7.824890 12.827600  2.244990
72   1  0.8785  6.142790 19.855300 16.918400
73   1  0.7267 11.088900  3.969620 12.430500
74   1  0.7054  6.249050  7.191200 21.469400
75   1  0.8856 11.025600 15.864900  2.310040
76   1  0.7758  9.724790 18.475100 15.858400
77   1  0.7995 14.430000  2.550520  2.194250
78   1  0.7745 10.494800  2.837230 20.943800
79   1  0.8122 12.608200 16.987600  9.222600
80   1  0.7159  2.859630 10.158000 14.558000
81   1  0.7953  1.695270  6.413540  5.769530
82   1  0.7808  4.449630  9.176910 19.084000
83   1  0.7022  1.313950 22.541600  8.814150
84   1  0.5265  7.246390  3.243110 14.951900
85   1  0.8366  5.051540 10.923100  7.355260
86   1  0.8395  5.750650 13.378600 21.379700
87   1  0.7337  8.602730 20.858200  8.793460
88   1  0.6296  9.151110 22.888400  1.609610
89   1  0.8091 10.287500  3.229710  3.357370
90   1  0.7275 14.768500  9.254940 12.600700
91   1  0.7260 12.282800  3.374700  7.605190
92   1  0.7786 14.151800 21.459200 13.428700
93   1  0.7627  0.373456 13.910200  6.993630
94   1  0.7529  9.784780  7.671420 19.963900
95   1  0.7233  6.341120 18.057000  3.438550
96   1  0.7812 13.050000  1.149470 18.779000
97   1  0.8247 15.206100  2.094350 10.107500
98   1  0.7595  5.608940  3.036540 21.518500
99   1  0.7079  2.412910 11.648900 10.697400
100  1  0.7278  0.665285 18.330200  1.928700
101  1  0.6444  9.584930  5.817450  9.526830
102  1  0.8703  2.010870  2.749340  3.193270
103  1  0.8339  3.682280 18.499800 12.043200
104  1  0.7373  8.814860 19.129900  0.323691
105  1  0.7409  9.324670 14.922400  9.574510
106  1  0.8047 13.293500  6.501810  1.928010
107  1  0.7589  7.710070  0.358165 18.984900
108  1  0.7598 13.227700 20.181000  2.126300
109  1  0.6076 12.644500  6.730760 10.768100
110  1  0.7408 11.155100  8.387460 23.328600
111  1  0.9044 12.912300 14.503600  6.011810
112  1  0.8158 15.507200 17.958400  5.821760
113  1  0.6578  2.619450  7.309490 21.692800
114  1  0.7169 11.164700 11.541200 14.439800
115  1  0.7612  3.168350 10.850000 22.698800
116  1  0.6537  2.935770 14.130000 13.588200
117  1  0.7567 16.365800  3.486360 23.358700
118  1  0.6449  4.107230  0.550568 15.794900
119  1  0.6160  2.825690 16.862700  4.586220
120  1  0.7921  8.911070 10.615600  9.096500
121  1  0.6741  6.326170  1.636000  0.954477
122  1  0.7943 12.985700  1.693060 15.332100
123  1  0.7204  8.392870 14.955900 23.494400
124  1  0.7193  5.654950 13.961500 10.593600
125  1  0.7913  8.812660  5.343920 23.316000
126  1  0.7438  6.041190  5.984710 12.426800
127  1  0.6232  4.093750 15.012400  7.374270
128  1  0.6004 16.716100 10.199000  8.998830
129  2 -0.4464 -0.094341  3.294320 12.285100
130  2 -0.7368 13.438900  2.963650 21.076000
131  2 -0.7261  0.351929 16.177900  5.322670
132  2  0.0648 15.859400 11.744100 23.997600
133  2 -0.4978  5.290380  3.226020  6.734060
134  2 -0.5439  3.134930  7.060170  3.211320
135  2 -0.6802  7.708590 16.630300 15.184200
136  2 -0.3604  4.492280 14.667000 18.459800
137  2 -0.4402 14.525600  1.262350 12.979100
138  2 -0.6285  8.017130  4.246110 20.439600
139  2 -0.5724  2.010580 21.879900 13.385200
140  2 -0.0451 16.045000 17.024300 14.728300
141  2 -0.5707 10.936200  0.861685 12.568200
142  2 -0.6944 16.451100  5.150650 21.166800
143  2 -0.6926 14.888500 12.377100  8.618380
144  2 -0.2196 16.063400 22.073200 15.831900
145  2 -0.8271  8.941490 10.320700  2.058920
146  2 -0.2441 13.639500 18.869700 13.414400
147  2 -0.6883 14.702100 18.723800  8.958590
148  2 -0.8086  2.744960  2.708380 14.202300
149  2 -0.3626 10.685600  3.224230 24.178300
150  2 -0.7073  7.741870  7.390050 10.782000
151  2 -0.5589  4.871510 22.753600 23.596600
152  2 -0.4343 13.713700 12.171100 14.142100
153  2 -0.4735 12.998300  7.272580 18.398800
154  2 -0.8322  2.854150 12.671100  7.287760
155  2 -0.6372 12.831000  3.455610 10.339900
156  2 -0.7430  9.034280  5.533160 13.856800
157  2 -0.5146  0.727723 11.673500  3.674240
158  2 -0.5557  9.185500 12.905300 16.843400
159  2 -0.5415  2.186880 21.212800  0.830755
160  2  0.0137 13.326000 17.387800 18.591500
161  2 -0.4166  2.284020  7.290940 16.002200
162  2 -0.6554  3.514250 17.988300  2.139270
163  2 -0.6825  2.818730 20.722100 10.073200
164  2 -0.3446  9.783890 20.235300 18.256300
165  2 -0.7759  1.713830  8.355140  7.843680
166  2 -0.8130  7.589160 15.379700 20.894300
167  2 -0.6955  7.474990 23.279600 10.517200
168  2  0.0349 14.454200 19.055800 17.033700
169  2 -0.7451 -0.107799  7.814070  2.836640
170  2 -0.0040 13.578500 12.578600 22.362900
171  2 -0.6564  8.264570  0.764371 23.651300
172  2 -0.3882 11.374400 17.707400 24.402200
173  2 -0.5608  1.958550 14.590100 16.151200
174  2 -0.7189  8.065620 12.240000 23.368600
175  2 -0.5737  6.047430 22.446700 13.677600
176  2  0.0982 14.678500 20.120600 19.646200
177  2 -0.2959  0.527413  9.260750 22.404500
178  2 -0.0330 13.298900 14.987500 14.652400
179  2  0.0457  0.676189 18.768400 17.342200
180  2 -0.7846 14.843500  8.416650  6.205630
181  2 -0.6020  7.365430 19.740000 22.242800
182  2 -0.5698  5.884500  6.017380 15.694900
183  2 -0.3304  7.272590  8.532760  7.353170
184  2 -0.5842  5.899800 11.797200 18.311500
185  2 -0.3366 12.928800 19.351200  4.932220
186  2 -0.7740 15.022100  1.579570 16.842000
187  2 -0.2935  0.424256 15.918300  0.666447
188  2 -0.0524  1.673950 14.579500 19.960200
189  2 -0.6257 16.217400  1.276020  5.099030
190  2 -0.0035 16.349100 16.422400 16.335000
191  2 -0.3887 13.432400 16.228600  3.834720
192  2 -0.6230 16.353600  9.486580 15.436800
193  2 -0.4915  8.855350 18.339100  5.855660
194  2 -0.5589  5.338970  9.531370 15.459200
195  2 -0.5597  3.654390 23.038600  6.143830
196  2 -0.6233 12.190200  3.611680 17.499500
197  2 -0.5911 10.407600 13.974900  4.187860
198  2 -0.0843 15.780400  8.372730 18.200100
199  2 -0.7676  2.097890  1.205070 10.824600
200  2 -0.3385 12.487700 22.025200 17.213900
201  2 -0.4599 10.886900 16.969900 13.241300
202  2 -0.7395  6.932370  8.615820 18.713700
203  2 -0.8581  5.502520 16.805900  5.660410
204  2  0.0518 13.963700 18.082300 21.723900
205  2 -0.5983  6.803900 16.353200  9.743900
206  2 -0.7212  4.536040 11.878400 12.763700
207  2 -0.6136 16.064600  0.761894 22.455000
208  2 -0.5607 10.848800  0.053857 20.331200
209  2 -0.5160 11.221000 22.559400  3.854760
210  2 -0.1216  1.189660 19.253800 15.484200
211  2 -0.0661 15.937700 14.341900  2.574190
212  2 -0.3764  2.792580 12.006500 19.838600
213  2 -0.6274  7.611930 22.280000 16.492100
214  2 -0.5177 11.072500 20.941000 24.199300
215  2 -0.6645 14.233000  9.029590 10.013500
216  2 -0.3634 10.600800 15.822900 16.973800
217  2 -0.5865  1.450450 17.076100 12.700300
218  2 -0.7278  1.933170  4.132870 -0.057481
219  2 -0.5008  3.953500 14.972100 22.447800
220  2  0.0485 15.890900 15.598000 21.902300
221  2 -0.5930 12.531900  1.052800  1.213140
222  2 -0.6411 11.045000  6.306820  0.770604
223  2 -0.3677  4.623350  7.283630  6.331850
224  2 -0.5244  9.680530  5.991210 17.240100
225  2 -0.6461  4.874220  3.992480  2.984830
226  2 -0.7229 15.634000  5.817070 16.812800
227  2 -0.4656 10.080400 18.439400  2.960730
228  2 -0.0474 14.070700 10.070300 21.478000
229  2 -0.5273  6.507410 21.042000 19.511800
230  2 -0.7231  5.330000  2.223470 18.563000
231  2 -0.6695  0.122819 20.670700  7.348960
232  2 -0.4709  5.412890 19.382500 14.379200
233  2 -0.6166 12.302400  8.952710  2.851400
234  2  0.0271 15.734700 15.859000 19.854100
235  2 -0.1873  0.551344 18.450100 22.901700
236  2 -0.5243 11.306300 14.285200  0.233586
237  2 -0.4505 14.833800  7.814710 23.942600
238  2 -0.6616  8.818650 10.121700 13.071100
239  2  0.0142 14.501200 15.681700 24.644800
240  2  0.0413  0.465858 18.591600 20.869300
241  2 -0.6164 16.320400  6.552370 11.415000
242  2 -0.2654  0.574611 22.633000 18.779300
243  2 -0.5881  4.065000 10.163000  4.979580
244  2 -0.5249  7.200650 11.567000  5.229460
245  2 -0.6780  0.719154  5.001050  7.944520
246  2 -0.7805  3.881130  8.762610  0.217171
247  2 -0.6075  5.052350 20.770400  7.862900
248  2 -0.6892  8.244060 22.983600  6.728580
249  2 -0.3953  7.395130  5.594320  7.794590
250  2 -0.6554  8.904000  7.467990  5.037390
251  2 -0.5110 11.094700 20.741400 14.541200
252  2 -0.4259 14.771300 19.480400 24.574200
253  2 -0.5779 10.885800  9.496140 10.390200
254  2 -0.4296  1.879680  8.059460 19.361400
255  2 -0.3761 11.028200 20.489300  7.383780
256  2  0.0254  0.292447 12.484600 20.935200
257  2 -0.5976  8.216880  4.596720  1.708260
258  2 -0.1384 14.443900 13.321500 17.428700
259  2 -0.5205  2.350580 20.384100  4.358420
260  2 -0.3831  3.481650 21.390800 17.250100
261  2 -0.7020 13.767300 12.145000  4.939560
262  2 -0.5703  4.275900  9.683200  9.751170
263  2 -0.6664  4.498580  5.683320 19.920100
264  2 -0.6169  3.470520  6.131060 12.712100
265  2 -0.5918  6.986300 13.189500  8.070580
266  2 -0.3272  1.759600 12.009500  0.380230
267  2 -0.4628 14.820600  4.353210  6.806170
268  2 -0.7217 15.706700 22.161800 10.849400
269  2 -0.4218 12.732600  9.725470  0.332106
270  2 -0.5730  5.307850 16.062000 13.030600
271  2 -0.6105  2.462230  2.440620 21.198100
272  2 -0.0845 12.400800 15.678300 19.512600
273  2 -0.2092 11.961900 18.864900 20.998500
274  2 -0.5267  2.580600  3.481270  5.500060
275  2 -0.7791  0.549455 12.176600 12.526500
276  2 -0.6253  5.240590 12.496700  1.373860
277  2 -0.6065 13.411100  4.005560 13.887000
278  2 -0.5790 12.561200  4.291810  3.730240
279  2 -0.2298  3.294700 18.980200 19.656400
280  2 -0.5610 10.749300 15.608000  6.994280
281  2 -0.6029  9.087330  2.093970 17.454600
282  2 -0.7197 16.014300 20.846700  3.639390
283  2 -0.4983  9.747470 17.910800  9.385900
284  2 -0.0556 14.763100 12.612500  0.941863
285  2 -0.6593  8.546020  3.004920  5.151190
286  2 -0.1664 14.001500 21.919600 21.072200
287  2 -0.4957  6.644240 19.588600 11.103600
288  2 -0.0396 15.275400  8.473030 20.720000
289  2 -0.6006 -0.272152  4.219760  3.665890
290  2 -0.6413  4.207260  0.710574  2.681300
291  2 -0.5653  8.103240 12.426000 11.140300
292  2 -0.7570  0.710815 14.493100  9.514450
293  2 -0.7762  8.948380  3.079120 10.851600
294  2 -0.7104  6.012040  4.986030 23.391600
295  2 -0.6308 10.784000 11.363300  6.641000
296  2 -0.6515  6.531700 17.783000 18.185400
297  2 -0.6978 11.984300  6.206790  8.071600
298  2 -0.0509 12.633800 14.151800 21.424900
299  2 -0.6861 13.884900  0.530292  8.081480
300  2 -0.0355 14.683300 12.150300 18.793900
301  2 -0.6807 13.973100  4.361520 -0.083338
302  2 -0.0656  0.423261 10.911700 19.223000
303  2 -0.5655  4.079730 17.386000  9.188510
304  2 -0.4396 10.288800 11.485900 20.061700
305  2 -0.7276  0.127825  1.705320  1.212240
306  2 -0.6433 11.342800  6.323440 21.522900
307  2 -0.5978 14.708400 15.630800  7.561630
308  2 -0.3573  1.801690 21.185300 21.844100
309  2 -0.6814  5.506910  3.790900 10.240900
310  2 -0.8194  5.616810 10.519100 21.451000
311  2 -0.3577 11.677100 13.529300 10.624500
312  2 -0.7803  6.908680 20.734200  2.395500
313  2 -0.8273 12.377800  9.024090 14.210000
314  2 -0.5681  5.856140 14.204800 15.697500
315  2 -0.5742 11.278500 20.835900 11.049300
316  2 -0.6260  6.590100 16.753300 24.206200
317  2 -0.5961  1.908750  9.108300 12.076400
318  2 -0.8528  8.454860  8.394960 22.107100
319  2 -0.3478 13.992500 16.263400 11.677900
320  2 -0.6266  7.803850 15.463000  2.515520

