Generated by pymatgen.io.lammps.data.LammpsData

320  atoms

  2  atom types

0.000000 16.864293  xlo xhi
0.000000 23.165087  ylo yhi
0.000000 24.472453  zlo zhi

Masses

1  208.9804
2   78.9600

Atoms

1    1  0.8179  0.211155 11.968100 11.250000
2    1  0.7471  1.157440 11.142600 22.581100
3    1  0.7909  1.088260 -0.188409 11.241500
4    1  0.7748  1.634700 22.079700 23.595300
5    1  0.7935  4.680000 12.289200 10.431900
6    1  0.7780  5.297740 11.711900 22.450500
7    1  0.8985  5.488720  0.212406 10.278100
8    1  0.7304  5.173160 23.106000 23.182600
9    1  0.7631  8.694900 12.644200  8.966250
10   1  0.8165  9.223250  9.628090 22.004200
11   1  0.6478  9.282180  0.356759 10.721700
12   1  0.7928  8.227270 19.481700 22.232100
13   1  0.8148 13.134700 10.698000 10.384900
14   1  0.8015 13.217800 11.872800 23.227900
15   1  0.8098 13.202700 22.981500 10.758900
16   1  0.7956 11.396500  0.656213 22.402900
17   1  0.7174  2.691910  1.065980  2.104440
18   1  0.8187  3.125780  2.034320 15.082600
19   1  0.8657  2.418570 12.230700  3.240710
20   1  0.8467  2.569990 12.210900 14.666000
21   1  0.7398  7.041180  2.027080  2.776250
22   1  0.8865  7.180410  0.635764 14.673500
23   1  0.6840  5.858830 10.214600  1.251230
24   1  0.8783  7.000910 11.909200 15.358300
25   1  0.7899 10.969500  1.294550  2.815400
26   1  0.8828 11.677500 23.054500 14.860600
27   1  0.7116 11.349100 12.852300  2.187230
28   1  0.8051 11.247800 12.573300 14.056400
29   1  0.7955 15.072400  1.216230  2.357910
30   1  0.8102 14.920200  2.039360 13.738000
31   1  0.8678 15.502900 12.621800  2.089410
32   1  0.7753 15.088300 12.512900 14.751900
33   1  0.7855  2.960490  6.463900  9.318360
34   1  0.8140  2.994730  4.621620 20.823900
35   1  0.7310  2.770520 18.115500  9.713010
36   1  0.7548  3.275300 17.667300 19.473200
37   1  0.7857  6.569930  6.511480  9.581120
38   1  0.7933  7.434280  5.343020 21.228300
39   1  0.7758  6.556360 16.723100  8.774690
40   1  0.7925  6.763080 17.557200 19.938000
41   1  0.8632 10.766500  6.196120  7.557030
42   1  0.7889 12.254200  6.264010 20.581300
43   1  0.9248 10.644800 18.518400  9.036150
44   1  0.8835 11.821500 17.255400 20.270000
45   1  0.7965 15.564400  6.036360  8.528980
46   1  0.8003 16.168100  5.028820 20.981400
47   1  0.9140 15.394600 16.997200  8.622700
48   1  0.8706 15.679200 18.147100 21.148900
49   1  0.8448  0.860094  6.869620  4.875720
50   1  0.7634  0.059333  6.233660 16.344700
51   1  0.8169 16.847300 16.497600  4.175270
52   1  0.8427  0.466866 18.035300 16.897400
53   1  0.7974  4.497580  6.813750  4.476920
54   1  0.7273  5.538740  6.031440 16.834300
55   1  0.7814  4.728830 18.026000  5.844840
56   1  0.8673  4.796830 17.900600 15.897300
57   1  0.7974  9.388910  7.435500  3.464060
58   1  0.7371  9.015160  8.169720 16.161100
59   1  0.7890 10.173000 18.443800  3.520570
60   1  0.7940  9.254380 17.553900 17.289000
61   1  0.8126 14.107800  7.311650  4.440560
62   1  0.7442 13.261400  5.582140 16.310500
63   1  0.7867 13.299400 17.888800  4.550400
64   1  0.9045 13.896600 18.471100 17.096400
65   1  0.8195  0.823011  2.461780  6.263860
66   1  0.7308  0.833873  2.223100 18.465200
67   1  0.8713 16.093200 13.595200  6.388490
68   1  0.7820  0.200504 13.594600 19.584700
69   1  0.8912  5.106250  1.789990  5.974640
70   1  0.7820  4.799360  1.228000 19.070500
71   1  0.7776  4.130660 13.957500  7.004290
72   1  0.7921  4.892820 13.187700 19.302000
73   1  0.7207 10.654700  2.432760  8.281350
74   1  0.8939 10.123000  2.187850 18.251000
75   1  0.7614  9.214550 15.252000  6.087150
76   1  0.8033  9.102790 14.130300 18.714400
77   1  0.7644 14.064800  2.224940  5.838080
78   1  0.8115 14.058300  2.110640 18.256700
79   1  0.8427 12.628300 13.401100  6.993330
80   1  0.8359 13.930900 14.219100 17.838300
81   1  0.7437  2.839800 10.360300  7.520980
82   1  0.8876  3.038420  9.600390 19.079000
83   1  0.7572  2.867110 21.568600  8.092270
84   1  0.7327  3.270760 21.084300 18.711300
85   1  0.6931  6.171700  9.931570  7.000770
86   1  0.8634  6.837020  9.541930 19.063200
87   1  0.7997  7.936710 21.524700  7.753800
88   1  0.7373  7.273730 21.250300 19.079000
89   1  0.8723  9.707250 10.919300  5.433890
90   1  0.7746 11.725800 11.248800 18.418200
91   1  0.8267 12.060900 22.169700  6.510780
92   1  0.8129 11.927700 21.475100 19.251100
93   1  0.8178 15.025500 10.191600  6.643030
94   1  0.8902 15.104400  9.446300 19.935000
95   1  0.7846  0.726635 21.602300  4.076830
96   1  0.7627 16.457600 21.888700 19.199800
97   1  0.7425  3.752240  8.083790 13.582100
98   1  0.7349  3.353330  8.098510  0.833508
99   1  0.7307  2.353190 19.862400 12.687000
100  1  0.8637  1.958750 18.799600  1.044490
101  1  0.6664  7.043350  8.570100 13.016100
102  1  0.6618  7.379210  7.470620 24.067800
103  1  0.8989  7.312850 19.757700 13.251600
104  1  0.7841  6.289880 21.862500  3.883590
105  1  0.8357 10.424800  7.491640 12.610500
106  1  0.7860 11.139500  9.294890  1.255120
107  1  0.7995 11.624700 19.814000 13.724100
108  1  0.7681 10.343300 21.390100  0.932292
109  1  0.8265 14.274400  7.186400 12.882900
110  1  0.8184 15.086700  8.959640  0.631324
111  1  0.8403 15.367600 19.149300 12.703700
112  1  0.7888 14.407000 19.616600  1.009810
113  1  0.8105  0.714812  4.225640  0.734690
114  1  0.7842  1.142430  4.462790 11.920900
115  1  0.7092  2.771770 14.756500 23.018000
116  1  0.7441  0.264120 15.189800 13.157900
117  1  0.7487  4.822900  4.898210  0.886470
118  1  0.6798  5.761800  4.821520 13.322000
119  1  0.8270  4.929810 16.169500  1.930720
120  1  0.8542  4.864450 15.305800 13.031700
121  1  0.7397 10.335600  4.027210 23.301600
122  1  0.8064  9.914120  4.142110 14.206600
123  1  0.7660  9.626230 15.273300  1.497460
124  1  0.7806  8.865430 15.439400 12.099700
125  1  0.7434 13.944900  4.837760 24.370900
126  1  0.7774 12.587100  4.216540 11.091100
127  1  0.7701 14.513500 16.394700  0.122612
128  1  0.8172 12.652700 16.002100 13.491200
129  2 -0.4832  0.525895  3.960290  8.808070
130  2 -0.5022  0.932536  3.137580 21.654800
131  2 -0.3289  0.410094 15.125800  9.670720
132  2 -0.5542  1.395330 15.845500 20.740900
133  2 -0.4430  4.831080  4.551770  9.620740
134  2 -0.4988  4.883820  2.243300 21.317300
135  2 -0.5814  4.089050 15.632300  9.489900
136  2 -0.3950  5.926750 15.023000 21.903100
137  2 -0.5187 10.071000  4.865250 10.288300
138  2 -0.5418  9.793530  3.508750 20.757400
139  2 -0.6558  9.331430 15.477500  8.881130
140  2 -0.3885  9.253510 15.601600 20.830700
141  2 -0.6075 12.822400  4.446400  8.254080
142  2 -0.5435 13.698400  3.772560 21.303200
143  2 -0.3602 12.461400 16.082500  8.922760
144  2 -0.4478 14.209600 15.737100 21.237000
145  2 -0.5881  4.133100  9.669520  3.860280
146  2 -0.3745  2.159680  8.149640 16.100000
147  2 -0.4885  2.937370 19.782900  4.122940
148  2 -0.3951  2.860960 20.270900 15.630000
149  2 -0.3372  9.096530  3.742850  2.930830
150  2 -0.6656  6.319000  8.898750 15.914000
151  2 -0.4412  7.287250 19.596100  5.271530
152  2 -0.3854  6.779630 20.382100 15.762100
153  2 -0.5898 11.487900  9.251980  4.064520
154  2 -0.3923 11.735000  8.928880 16.249900
155  2 -0.5198 12.626100 20.374100  2.850400
156  2 -0.5827 11.653400 19.389100 16.461200
157  2 -0.5111 16.270400  8.906770  3.847150
158  2 -0.3300 15.286300  8.512750 16.467800
159  2 -0.6131 16.152700 18.952700  3.300340
160  2 -0.4807 16.122200 20.039500 15.389500
161  2 -0.4168  2.553970 10.433900 10.541300
162  2 -0.5291  3.327330  9.312210 22.256400
163  2 -0.7204  3.620150 21.354300 10.481800
164  2 -0.2227  7.298520 14.614500  0.082085
165  2 -0.5151  6.920580 10.523400 10.235200
166  2 -0.6952  6.527620  9.396210 21.792700
167  2 -0.5608  7.511380 21.490900 10.535800
168  2 -0.5609  4.847890 19.396900 21.554200
169  2 -0.3573  9.405100  8.332860 10.103600
170  2 -0.5295 11.799200  9.195910 23.009500
171  2 -0.5478 11.107400 20.668300 10.446000
172  2 -0.5505 10.769600 20.907800 22.683000
173  2 -0.4682 15.430900  9.468370 11.286700
174  2 -0.6284 15.509600 10.117900 22.663600
175  2 -0.4517 15.670500 21.142600 10.605700
176  2 -0.3920 15.685600 21.057100 21.933100
177  2 -0.6188  0.532058  2.723510  3.293710
178  2 -0.5730  0.584134  3.279160 14.924700
179  2 -0.6198  0.372263 13.559800  3.884300
180  2 -0.5487  0.313754 13.668800 15.911400
181  2 -0.5336  4.533780  3.602260  4.076240
182  2 -0.5076  5.882870  2.553090 16.093200
183  2 -0.4320  4.903780 13.194900  4.030440
184  2 -0.4647  4.593080 13.855400 15.613400
185  2 -0.5393  7.511900  1.284010  5.440250
186  2 -0.5831  9.595430  1.577550 15.315600
187  2 -0.4706  7.462010 16.402900  2.904260
188  2 -0.5097  9.043790 13.988300 15.893900
189  2 -0.5025 12.898000  3.134020  3.477610
190  2 -0.6198 12.885100  2.302090 15.627700
191  2 -0.5626 13.620400 14.500400  2.888010
192  2 -0.7284 12.620200 14.098400 15.463300
193  2 -0.5388  1.224640 11.066200  5.687850
194  2 -0.4490  0.667569 11.055300 18.554100
195  2 -0.6856  2.525690  0.638741  4.724300
196  2 -0.4926  1.188270 -0.363457 17.066500
197  2 -0.5503  2.346450 12.662300  8.503780
198  2 -0.5936  4.818810 10.952400 17.756600
199  2 -0.6290  5.053140 22.495900  7.112090
200  2 -0.5359  5.456460 22.430100 17.293500
201  2 -0.6769 11.078100 13.530200  4.925950
202  2 -0.6175  8.296670 10.776500 17.325400
203  2 -0.5430 10.906300  1.478140  5.647400
204  2 -0.5199 10.227500 22.371500 17.501200
205  2 -0.5490 14.169500 11.888400  4.910460
206  2 -0.5116 14.257700 11.630400 17.117100
207  2 -0.5660 14.976400 22.526400  4.037530
208  2 -0.5015 13.688200 22.402900 17.227400
209  2 -0.3589  2.807700  1.732930  8.453090
210  2 -0.6289  2.410650 23.251400 20.419200
211  2 -0.5017  8.448490 11.421000  3.034450
212  2 -0.8058  2.955740 12.665100 21.058900
213  2 -0.4817  7.477170  1.548060  8.750610
214  2 -0.4964  7.810490 23.142500 21.401000
215  2 -0.6757  7.556280 12.342400  6.606730
216  2 -0.5563  7.232130 12.203100 20.017100
217  2 -0.6860 12.877500  1.159730  8.137760
218  2 -0.6182 12.218600  1.081590 19.717200
219  2 -0.5183 10.771300 11.109100  7.940010
220  2 -0.4278 11.090500 12.252900 21.314100
221  2 -0.3710 -0.030105 22.494500  7.478070
222  2 -0.3350 15.539700  1.064570 20.753500
223  2 -0.6595 14.579400 12.177800  8.552640
224  2 -0.5461 14.323500 12.126400 20.202600
225  2 -0.6489  2.348280  6.491490  2.679910
226  2 -0.6606  3.089620  5.309670 13.786000
227  2 -0.6101  1.689540 16.454700  2.291590
228  2 -0.5534  2.900080 17.325500 13.989700
229  2 -0.5118  7.622750  4.344020 24.340600
230  2 -0.5290  8.238130  5.165230 16.243100
231  2 -0.3206  7.950460 19.495400  1.072930
232  2 -0.4863  6.654510 16.333600 14.658500
233  2 -0.4467 12.476300  6.692830  1.900060
234  2 -0.7916 12.173500  5.608570 13.809100
235  2 -0.6429 11.886000 17.345800  1.962840
236  2 -0.5305 10.225500 17.353000 14.000500
237  2 -0.5225 15.536500  5.431850  1.975580
238  2 -0.6626 15.190000  4.684620 12.130800
239  2 -0.5821 16.812400 18.041600 23.740500
240  2 -0.6170 15.176100 16.967500 14.827800
241  2 -0.4109  1.126110  7.336540 11.975200
242  2 -0.4017  1.208550  6.909710 23.364700
243  2 -0.6160  0.244197 17.873100 11.276400
244  2 -0.3946  4.269270 17.442100 24.031900
245  2 -0.5430  4.503840  8.575780 11.065800
246  2 -0.5967  4.594300  5.772920 22.965300
247  2 -0.5114  5.255750 17.893100 11.803800
248  2 -0.2298  5.301120 19.301900  2.276760
249  2 -0.7738  8.059920  6.008660 12.682900
250  2 -0.5750 10.224700  6.578320 24.327000
251  2 -0.4738  8.890090 18.473900 11.115500
252  2 -0.2514  9.744740 17.269400 23.822100
253  2 -0.4983 12.661500  7.329580 10.576700
254  2 -0.5748 14.152200  7.154900 22.031000
255  2 -0.5312 13.187200 18.070800 11.713900
256  2 -0.3918 12.645500 18.052000 22.919600
257  2 -0.4962  0.884211  9.826690  1.085660
258  2 -0.4473  0.500497 10.637000 13.930700
259  2 -0.4938 16.321100 21.681900  0.788801
260  2 -0.3738  0.269845 -0.039522 13.770400
261  2 -0.7256  6.313860  6.681870  2.240240
262  2 -0.5176  5.124340 11.155600 13.453500
263  2 -0.5842  2.999230 21.189800  1.176200
264  2 -0.3739  4.896750 22.491400 13.430300
265  2 -0.6827  8.592610  9.900240 24.549000
266  2 -0.5492  9.836370 10.003000 13.605000
267  2 -0.5154  9.883650 21.736800  3.733950
268  2 -0.6002  9.337150 21.514100 13.465600
269  2 -0.7698 13.355100 11.075500  1.376890
270  2 -0.4435 12.623100  9.718630 13.364600
271  2 -0.5250 12.748600  0.169283  0.645774
272  2 -0.4823 14.117800 21.887200 13.446500
273  2 -0.4473  3.546360  1.622570 11.751100
274  2 -0.6186  2.974480  2.203260 24.374800
275  2 -0.5646  2.545310 13.902400 11.936800
276  2 -0.6190  3.909390 12.017200  0.599691
277  2 -0.5141  6.848770  2.386970 12.276900
278  2 -0.6193  6.075990 -0.505202  1.593090
279  2 -0.6102  6.844400 13.454800 11.910800
280  2 -0.1578  8.291210 13.016600 23.505300
281  2 -0.6970 11.916200  1.349810 12.553300
282  2 -0.5761  9.492830  1.326330 -0.290860
283  2 -0.5460 11.276300 13.850800 11.554700
284  2 -0.3309 11.804100 14.886300 23.526300
285  2 -0.4473 15.457700  1.567320 10.740500
286  2 -0.4634 15.538200  2.584180 24.178500
287  2 -0.5797 14.870900 13.909200 11.800500
288  2 -0.5953 16.401500 14.263100 24.478100
289  2 -0.3879  2.954780  5.017390  6.317990
290  2 -0.6065  2.804850  3.695680 17.426900
291  2 -0.5268  1.496050 15.500800  6.312990
292  2 -0.5353  2.399310 16.298100 17.180400
293  2 -0.2293  7.582350  4.748880  6.879690
294  2 -0.4038  6.605050  3.956100 19.158300
295  2 -0.6933  6.013010 15.696300  6.284390
296  2 -0.6295  7.183120 15.911300 17.944100
297  2 -0.2896 11.001400  5.434880  4.744540
298  2 -0.5304 11.413400  4.870830 18.119900
299  2 -0.5813 10.998100 17.606500  5.948450
300  2 -0.6239 11.996600 16.394900 17.708100
301  2 -0.5926 15.816800  5.163300  5.711770
302  2 -0.7693 15.529300  4.504680 18.276100
303  2 -0.6319 14.513100 15.865500  6.202850
304  2 -0.5889 15.401000 16.357000 17.835500
305  2 -0.6241  0.415454  7.946160  7.665910
306  2 -0.4323  0.632895  7.547930 19.444000
307  2 -0.4238  0.005990 18.879500  7.626750
308  2 -0.7115  1.175620 19.240000 19.733400
309  2 -0.7010  4.805510  7.771150  7.539130
310  2 -0.4961  4.030630  7.182790 18.874100
311  2 -0.5878  5.544240 19.071700  8.267570
312  2 -0.7240  5.371790 19.305100 18.171000
313  2 -0.5353  8.652350  8.185850  6.108810
314  2 -0.5880  8.655530  7.600570 19.660000
315  2 -0.5333 10.123800 20.451800  6.846550
316  2 -0.8236  8.716850 19.059000 19.846500
317  2 -0.5437 13.111000  8.410040  7.151130
318  2 -0.4823 12.384700  8.914690 19.359300
319  2 -0.3158 13.387100 20.025700  7.597100
320  2 -0.7373 13.540800 18.990300 19.442800

