Generated by pymatgen.io.lammps.data.LammpsData

320  atoms

  2  atom types

0.000000 16.864293  xlo xhi
0.000000 23.165087  ylo yhi
0.000000 24.472453  zlo zhi

Masses

1  208.9804
2   78.9600

Atoms

1    1  0.8331  3.032950 11.988500  9.732060
2    1  0.8894  1.433760  8.991560 22.930200
3    1  0.8174  2.282900 19.518100 12.475600
4    1  0.7717  1.761200  0.378054 21.748500
5    1  0.7265  5.762860 12.366000 13.169300
6    1  0.6458  7.427240 14.225900  0.495984
7    1  0.8356  2.953300 22.558700 11.070700
8    1  0.8637  1.992690 20.776400 18.159700
9    1  0.6886  6.773460 11.576700 10.168600
10   1  0.8131  7.994810 10.204000  0.092047
11   1  0.8501  9.357270 23.026200 10.414700
12   1  0.6300 11.334100 21.972200 22.912700
13   1  0.8618 12.434100 12.382700  9.412080
14   1  0.7293 10.612800  7.769210 21.983800
15   1  0.7314 13.713200 21.170500 10.993200
16   1  0.8639 13.157500  2.105620 22.010200
17   1  0.7681  3.570090 22.371000  0.689648
18   1  0.8817  1.285560  1.611750 13.986300
19   1  0.7134  4.702270 11.279100  4.326570
20   1  0.7304  1.923030 10.706100 13.199300
21   1  0.8616  4.132250  0.584161  4.530750
22   1  0.7366 11.080500 23.133700 19.682400
23   1  0.6755 11.129200  9.534480  4.332220
24   1  0.8055  8.595730 11.276000 16.069300
25   1  0.8116  7.141070  2.453430  3.527080
26   1  0.8898 11.908500  1.883430 13.194300
27   1  0.8823 14.412900 13.497700  3.087530
28   1  0.7876  9.449230 12.597400 12.089900
29   1  0.8249 16.455100  0.885778  1.014690
30   1  0.7951 15.992300 18.283200 14.351400
31   1  0.7729 16.215000 12.001200  0.310726
32   1  0.7724 14.618800 10.193200 13.828100
33   1  0.7792  2.646810  4.233220  9.177350
34   1  0.7571  3.813040  3.555790 19.293500
35   1  0.7664  1.338470 16.652300  8.307410
36   1  0.5502  5.254790 15.008100 21.370700
37   1  0.8023  8.229380  4.764810  7.241080
38   1  0.7807  6.202710  7.513090 21.081800
39   1  0.8023  6.012610 17.837900 10.912500
40   1  0.7917  4.754570 18.288000 22.299400
41   1  0.7984 10.008600  0.978057  6.600720
42   1  0.5759  8.455000  8.026050 18.509800
43   1  0.7848 10.296300 18.950900 11.960400
44   1  0.6894  9.538960 19.719300 22.838700
45   1  0.6964 15.666400  7.108840  6.549720
46   1  0.6856 14.074000  5.208370 20.001500
47   1  0.7362 15.259600 17.892800  9.445540
48   1  0.7712 16.141100 17.550200 18.133800
49   1  0.5552 13.638900  8.687300  1.123670
50   1  0.8478  1.229160  5.570930 15.446600
51   1  0.8314  2.526360 18.240900  5.295600
52   1  0.6092  2.745950 14.596000 18.393200
53   1  0.8247  4.784570  6.075340  5.768940
54   1  0.8446  5.032470  4.698250 14.015200
55   1  0.6464  7.325330 15.953000  4.780020
56   1  0.7808  5.352360 17.863800 14.549600
57   1  0.6610  8.976940 10.062100  6.556430
58   1  0.8492  4.404820  8.862180 17.129500
59   1  0.7146 10.419800 19.230200  4.164640
60   1  0.6432  9.782340 18.918400 16.175000
61   1  0.7561 14.340400 10.169400  5.227460
62   1  0.6374 10.135500  7.116690 15.806300
63   1  0.7956 12.971100 17.309600  1.474420
64   1  0.6645 12.099900 19.375300 18.862600
65   1  0.7792 16.367400  3.792180  7.359970
66   1  0.8653  0.379307  2.158280 17.727700
67   1  0.7128  2.743910 13.198700  6.313490
68   1  0.8577  0.560981 10.510000 17.569300
69   1  0.9022  5.045290  0.978589  8.226090
70   1  0.8026  5.122530 22.507900 20.293500
71   1  0.8357  8.185520 14.922000  7.946930
72   1  0.7579  6.621680 17.318200 18.931100
73   1  0.7953 12.434800  2.124980  9.601660
74   1  0.7719 10.058300  3.540510 20.129700
75   1  0.7810 12.743500 16.268900  6.290270
76   1  0.8978 10.581200 15.429200 16.802100
77   1  0.8338 13.619800  4.502030  4.576570
78   1  0.6683 11.946100  4.664420 16.740700
79   1  0.8782 16.001500 13.046500  7.378270
80   1  0.8220 15.988800 13.710600 16.161500
81   1  0.7896  2.097290  7.907890  8.071150
82   1  0.8834  1.679510  6.708950 19.582600
83   1  0.8827  0.764821 21.956400  8.032520
84   1  0.8238  4.290090  0.607961 16.648100
85   1  0.6796  5.399720  9.921480  7.318410
86   1  0.7527  6.046260 11.808500 20.490200
87   1  0.8388  6.490250 19.929200  6.328390
88   1  0.6669  7.567560 20.639600 18.512400
89   1  0.8057 11.416900  7.292610  7.941850
90   1  0.7330 12.590000 10.889500 17.078700
91   1  0.8772 14.592700 21.133000  5.741560
92   1  0.8270 14.152000 22.967600 17.941000
93   1  0.7677  1.170100 10.818700  4.831800
94   1  0.6819 13.751800  7.862920 18.523000
95   1  0.8243  1.210520 21.721100  3.580240
96   1  0.9188 15.190200 19.988400 21.536100
97   1  0.8229  1.319480  7.157910 11.617900
98   1  0.8726  3.977200  7.759160  1.603790
99   1  0.8408  0.167341 13.835600 12.130600
100  1  0.7781  2.036400 18.246200  1.061070
101  1  0.9033  5.820550  8.324920 12.508300
102  1  0.8024  5.089420  3.206250 22.444700
103  1  0.8494  6.229860 21.651100 12.694100
104  1  0.8406  7.530990 21.973800  2.615190
105  1  0.8040 10.067300  9.184940 11.212900
106  1  0.7867  8.555010  5.664510  0.244364
107  1  0.8257  9.251690  0.270831 15.690200
108  1  0.6137  8.886260 17.281700  1.252010
109  1  0.7182 15.059200  9.766590 10.484000
110  1  0.7114 15.658300  6.358380  0.000880
111  1  0.7223 12.849700 20.196200 14.484100
112  1  0.8163 14.728400 20.733400  1.684920
113  1  0.8152  0.171986  3.962620 22.326400
114  1  0.8202 14.080500  4.488380 11.845800
115  1  0.7490  3.466040 12.717000 23.756600
116  1  0.6738  2.895410 15.530500 15.165100
117  1  0.7804  1.719190  4.244260  2.231640
118  1  0.7654  6.565440  2.548350 11.557500
119  1  0.6544  5.432730 16.597800  1.649210
120  1  0.7074  4.511080 15.544900 10.042200
121  1  0.8206  7.980570  0.802381 22.582100
122  1  0.7011  8.246220  4.556080 17.100400
123  1  0.6707  8.831110 12.909900  4.109430
124  1  0.8989  8.651410 15.520300 13.138600
125  1  0.7395 11.519200  4.829860 23.768800
126  1  0.8612 10.336900  5.267450 11.806600
127  1  0.7999  0.967167 15.275500  1.189300
128  1  0.8671 12.570500 14.735800 13.237100
129  2 -0.4495 15.082300 22.254200  8.681940
130  2 -0.7213  1.233950  3.584000 19.914700
131  2 -0.4986 15.854300 15.749300  6.665620
132  2 -0.0957 15.966100 15.537800 22.045700
133  2 -0.5062  5.675410  3.918590  8.844370
134  2 -0.6153  2.656470  2.057250 23.950900
135  2 -0.6092  7.713630 15.229500 10.408500
136  2 -0.3986  7.022930 14.251700 19.016900
137  2 -0.5717 10.854900  3.616950  7.742000
138  2 -0.5898  7.492570  5.537710 19.743800
139  2 -0.2274 10.733000 16.543100  9.420910
140  2  0.0010 11.171000 15.483300 21.611000
141  2 -0.5319 13.636700  4.893900  7.684310
142  2 -0.6814 14.042000  4.697970 22.720500
143  2 -0.5564 15.899600 12.449800 10.219600
144  2 -0.1676 15.515900 10.816900 19.972000
145  2 -0.5048  9.581350  7.140980  5.888380
146  2 -0.4840  0.413326  4.559710 12.672500
147  2 -0.4812  3.592580 22.087100  6.705340
148  2 -0.5088  6.382770 21.498200 15.645000
149  2 -0.3934  9.972330  2.528840  4.190500
150  2 -0.4962  8.738880  3.705460 14.563600
151  2 -0.4758  7.909270 21.975700  5.163980
152  2 -0.6154  9.906680 20.734100 14.077200
153  2 -0.3188 13.141100 11.432000  0.272761
154  2 -0.5776 10.675400  9.602770 14.913700
155  2 -0.5507 13.524600 18.841600  3.676060
156  2 -0.6569 11.875000 22.120600 16.912000
157  2 -0.5798  2.103930 12.719100  1.252020
158  2 -0.5809 12.711800  7.041810 15.772300
159  2 -0.4111  0.071668 18.480500  3.572760
160  2 -0.6011 14.829400 19.888000 18.904300
161  2 -0.6232  1.359800  9.860980 10.588900
162  2 -0.6689  6.770930 13.094300 22.439100
163  2 -0.6301  4.567110 20.263200 11.046300
164  2  0.1058 12.863700 12.409200 21.674800
165  2 -0.6277  4.607230  9.855100 10.691600
166  2 -0.5552  8.084050  9.835850 21.563700
167  2 -0.6224  5.539200 23.098000 10.395700
168  2 -0.3248  0.719625 18.147500 20.714400
169  2 -0.6435 12.793500 10.100200  8.642870
170  2 -0.3044 10.024200 12.634800 18.406000
171  2 -0.4875 11.540200 22.660900  8.581870
172  2 -0.5063 14.919900 18.525900  0.161851
173  2 -0.6994 16.435000 16.069200 15.404800
174  2 -0.4711 13.670100  7.822840 22.506200
175  2 -0.3448  0.057539 20.905100 14.327500
176  2 -0.4411 15.473500 22.032700 23.524800
177  2 -0.5246 16.136700  3.499780  0.734305
178  2 -0.3444 14.185600 22.763500 13.955800
179  2 -0.7102  2.797090 16.228900 23.958700
180  2 -0.6332 14.900200 12.829600 13.635100
181  2 -0.6625  5.510540  0.497555  2.241300
182  2 -0.4777  6.129080  2.603520 16.576400
183  2 -0.5081  8.083930  9.811890  3.810980
184  2 -0.6436  6.791970  9.786270 17.468900
185  2 -0.6619  6.147860  1.453270  5.919070
186  2 -0.4940 11.903300  1.890030 15.758000
187  2 -0.7173  6.415420 14.000600  3.581660
188  2 -0.6412  9.418820 13.572300 14.813600
189  2 -0.3464 13.311900  1.650990  0.178130
190  2 -0.3713 15.836300  3.312010 15.632500
191  2 -0.5258 13.817800 12.637300  6.530970
192  2 -0.5000 12.982300 13.932700 15.887100
193  2 -0.5428  3.120050 16.045500  2.843820
194  2 -0.5284  3.465230  7.074940 13.947100
195  2 -0.6293  2.043660  1.116560  3.069710
196  2 -0.4297  0.320431 22.935200 16.422500
197  2 -0.7089  5.360400 13.394100  8.617420
198  2 -0.7301  1.376100 12.406000 15.813900
199  2 -0.5039  2.603630  1.408880  8.820060
200  2 -0.5579  4.441260 20.457100 18.509700
201  2 -0.5591 12.194100 11.922300  3.901540
202  2 -0.5265  4.461330  9.363400 20.318100
203  2 -0.1942 13.489000  0.995346  6.005310
204  2 -0.7265  8.799180 22.155800 20.453200
205  2 -0.3833 15.009400 15.953000  3.372340
206  2 -0.5869  1.555500  8.438120 16.679600
207  2 -0.2332 15.134400  2.202840  4.840520
208  2 -0.5987 13.538600 22.786700 21.320100
209  2 -0.2853  0.120178  2.228820  9.402550
210  2 -0.4074  0.090259 21.750700 19.701300
211  2 -0.6742  7.309130 12.077600  6.263170
212  2 -0.4551  1.737030  9.127180 20.293800
213  2 -0.4723  7.485920 22.969700  8.538690
214  2 -0.4461  3.170270 20.795300 21.721200
215  2 -0.6919  9.042040 11.998700  9.233410
216  2  0.0220 10.877200 12.040900 22.029300
217  2 -0.5781  0.024775 19.851400 10.687000
218  2 -0.7837  9.765390  5.279710 22.095200
219  2 -0.6005 16.472600 10.135800  7.234830
220  2 -0.1729 14.170500 12.821400 18.816100
221  2 -0.3302  0.850660  0.698499  6.143000
222  2 -0.5850 14.492900  2.186330 18.903900
223  2 -0.7269  2.765890 10.457100  7.487570
224  2 -0.6773 15.254000 10.360800 16.365500
225  2 -0.3954  4.703970  4.868310  2.030260
226  2 -0.5458  3.794060  2.944910 12.403800
227  2 -0.5266  4.051400 20.443900  3.822820
228  2 -0.5033  3.953670 20.242000 14.325000
229  2 -0.5289  6.179540  2.323320 19.944500
230  2 -0.5022  4.709450  5.886490 18.136700
231  2 -0.3575  7.236060 20.869400 23.877300
232  2 -0.6955  7.654540 17.926200 12.833600
233  2 -0.6074  9.627840  8.045530  0.653700
234  2 -0.4667  8.940930  7.092100 13.163600
235  2 -0.7049  7.539670 18.653900  3.730040
236  2 -0.6405 10.684800 16.766500 14.328100
237  2 -0.5712 13.130800  5.693590  1.733600
238  2 -0.6223 12.169500  4.516040 13.610300
239  2 -0.1651 11.393700 14.657300 24.318900
240  2 -0.5384  1.363940 18.461400 15.963300
241  2 -0.6565 16.415000  6.066700  9.208650
242  2 -0.4458  3.465670  5.899000 22.233000
243  2 -0.6951  1.471060 13.920500  8.781090
244  2 -0.6850  7.727340 16.589900 23.655000
245  2 -0.5593  3.291880  6.953870 10.157400
246  2 -0.4787  6.155640  7.219280 24.254400
247  2 -0.5277  2.816450 18.789500  8.067570
248  2 -0.5332  5.122450 18.945000  0.710998
249  2 -0.4086  6.432450  5.404390 11.739800
250  2 -0.5372  7.140310  3.195510 24.107000
251  2 -0.3283  8.481990 19.748600  9.593250
252  2 -0.6833 10.345000 19.597000  1.117740
253  2 -0.5807 12.359700  6.978410 10.598300
254  2 -0.5478 16.627500  6.934180 21.290400
255  2 -0.3859 14.101900 15.312700 10.277100
256  2  0.0190 13.626500 15.672300 22.059700
257  2 -0.5542  4.395470  8.758200  4.526100
258  2 -0.5528 16.451700  8.026730 13.651900
259  2 -0.7106  1.000160 20.851400  1.157900
260  2 -0.6562  3.738770 17.005700 12.284200
261  2 -0.7663 15.801600 11.349200  3.206150
262  2 -0.5389  5.353180 10.192600 14.667000
263  2 -0.6025  5.436560  0.407002 22.777800
264  2 -0.5331  3.750010  0.368166 13.961000
265  2 -0.2461 10.842900 11.653600  1.049360
266  2 -0.7655  8.084690 10.551400 12.482700
267  2 -0.2983 11.452100 21.799600  4.482170
268  2 -0.6002  8.296990  0.182316 12.723900
269  2 -0.4873  1.688670  9.423160  1.779410
270  2 -0.6054 12.002400 11.276400 12.202500
271  2 -0.5625 15.424800 22.474100  3.480950
272  2 -0.5864 13.348800 18.137400 16.170000
273  2 -0.3988  0.608120 23.109600 11.793500
274  2 -0.5663  1.473580  6.585090 24.092000
275  2 -0.7081  2.806770 13.132100 12.475800
276  2 -0.5087  5.648320 12.076200  1.031720
277  2 -0.7972 10.488100  2.796970 11.040900
278  2 -0.3677  9.853250  0.280208  1.745850
279  2 -0.5764  6.033800 15.040300 13.571000
280  2 -0.6081 11.394700 15.370900  3.184760
281  2 -0.4788 14.549900  2.115350 11.138800
282  2 -0.8233 10.745500  1.758950 21.817300
283  2 -0.5213 10.722300 14.602300 11.254400
284  2 -0.3993 15.078400 14.514400  0.317854
285  2 -0.5846 11.410600 22.654000 12.064300
286  2 -0.4805 16.281500  1.399690 21.856000
287  2 -0.5484  0.601997 16.657700 11.001500
288  2 -0.4419  0.669387 11.336000 22.385100
289  2 -0.5629  2.438350  4.214760  6.392830
290  2 -0.7382  2.927430  0.548696 18.955200
291  2 -0.4471  4.100530 16.256100  6.599400
292  2 -0.4716  5.029740 14.644000 16.782500
293  2 -0.5101  6.638840  4.727980  4.891430
294  2 -0.6182  9.621330  1.441360 18.322200
295  2 -0.4362 11.234400 14.116700  7.071200
296  2 -0.5082  7.791130 16.582200 16.446500
297  2 -0.1482  7.437260  6.217170  3.848510
298  2 -0.8716 11.475000  6.139430 19.149300
299  2 -0.5006 13.611200 19.376700  7.895690
300  2 -0.2968 12.725300 15.994900 18.336300
301  2 -0.5700 16.182000  5.375920  4.160170
302  2 -0.5393  0.057325  5.571080 17.960400
303  2 -0.5398  0.897337 13.693000  4.656750
304  2 -0.4374  0.870029 13.973300 19.943600
305  2 -0.5371  1.909870  8.051350  5.222520
306  2 -0.6554  2.590580  3.151600 15.970400
307  2 -0.6152  0.650781 20.418600  5.871990
308  2 -0.5940  3.928900 17.358100 19.447900
309  2 -0.4286  5.839060  7.168640  8.093450
310  2 -0.4346  3.975900 10.052500 23.691600
311  2 -0.5369  6.770540 17.027400  7.164890
312  2 -0.5253  6.655380 19.655400 21.051400
313  2 -0.4943  8.810680  7.299440  9.516290
314  2 -0.4590  6.389810  6.785840 15.642900
315  2 -0.3241 10.330400 19.554900  6.803500
316  2 -0.6674  9.488420 18.344600 19.049200
317  2 -0.7391 13.005000  7.896180  5.868640
318  2 -0.4278 12.060700  9.766910 20.033700
319  2 -0.5634 13.331400 18.039300 12.485700
320  2 -0.5913 12.722400 19.345300 21.993200

