Generated by pymatgen.io.lammps.data.LammpsData

320  atoms

  2  atom types

0.000000 16.864293  xlo xhi
0.000000 23.165087  ylo yhi
0.000000 24.472453  zlo zhi

Masses

1  208.9804
2   78.9600

Atoms

1    1  0.8287  1.064640 11.499500 10.382000
2    1  0.8518  1.234080 10.864900 22.645900
3    1  0.8175  1.108520 22.798900 10.248600
4    1  0.8327  1.203310 22.881600 22.980000
5    1  0.8719  5.093460 11.344200  9.993310
6    1  0.8281  5.303490 10.931600 22.502100
7    1  0.8499  5.473000 22.831800 10.279700
8    1  0.8803  5.122230 23.113600 22.820900
9    1  0.8268  9.463290 11.034200 10.321400
10   1  0.8160  9.486820 11.154700 22.485600
11   1  0.7985  9.574740 22.476600 10.302500
12   1  0.7895  9.363610 22.370500 22.751800
13   1  0.8408 13.922800 11.374700 10.701000
14   1  0.8190 13.877400 11.065900 22.695100
15   1  0.7824 14.152100 22.728900 10.284500
16   1  0.8167 13.890700 22.917700 22.742900
17   1  0.8268  3.356910  0.415752  1.763400
18   1  0.8391  3.377550  0.209183 13.603600
19   1  0.8184  3.253040 11.526800  1.486880
20   1  0.8469  3.367920 11.827600 14.023300
21   1  0.8185  7.412810  0.185594  1.380950
22   1  0.8318  7.802360  0.185395 13.938700
23   1  0.7916  7.492220 11.999500  1.863920
24   1  0.8204  7.533290 11.947300 13.818800
25   1  0.8162 11.454500  0.177005  1.806810
26   1  0.8737 11.694400  0.136114 13.560100
27   1  0.8542 11.762100 11.675800  1.884040
28   1  0.8266 11.703000 12.096900 14.252400
29   1  0.8394 15.823900  0.470561  1.900460
30   1  0.8236 16.254700  0.272627 13.750300
31   1  0.8051 15.694500 11.685900  1.578800
32   1  0.8297 15.873300 11.931100 14.228400
33   1  0.8110  3.221710  5.562090  8.084760
34   1  0.8804  3.031670  5.328930 19.965000
35   1  0.8577  3.356170 17.046800  7.720310
36   1  0.8386  3.153750 17.254000 20.276400
37   1  0.8420  7.559300  5.581330  8.013050
38   1  0.8224  7.346260  5.078330 19.930500
39   1  0.8135  7.499740 16.969800  7.667540
40   1  0.7483  7.658560 17.025800 20.162200
41   1  0.8070 11.600400  5.582550  7.884430
42   1  0.8086 11.508800  5.274080 20.207500
43   1  0.7851 11.288200 16.956100  7.859430
44   1  0.8061 11.633300 17.036400 20.578400
45   1  0.7647 15.574500  5.187960  7.894610
46   1  0.8463 15.586500  5.220170 20.177000
47   1  0.8622 15.851300 17.143300  7.852910
48   1  0.7834 15.628900 16.892600 20.183400
49   1  0.8253  1.136940  6.063840  4.243600
50   1  0.8324  0.709682  5.890940 16.442400
51   1  0.8051  1.238710 17.544400  4.178990
52   1  0.8521  1.114030 18.007900 16.602800
53   1  0.8422  5.395660  6.156350  4.544000
54   1  0.7868  5.457270  6.084380 16.243000
55   1  0.8223  5.415240 17.866300  4.217960
56   1  0.7656  5.257920 17.905000 16.934800
57   1  0.8803  9.809550  6.137390  4.413620
58   1  0.8297  9.702150  6.139660 16.662900
59   1  0.8274  9.759350 17.671600  4.219040
60   1  0.8422  9.631770 17.806900 17.035800
61   1  0.7991 13.689100  6.174710  4.780840
62   1  0.8078 13.628700  6.066460 16.674200
63   1  0.8290 13.944000 17.827200  4.079710
64   1  0.8310 13.795300 17.871500 16.729500
65   1  0.8173  1.009020  2.083570  5.968810
66   1  0.8400  0.906604  1.966820 17.978600
67   1  0.8108  1.234220 13.448900  5.656540
68   1  0.8313  0.844047 13.444600 17.930300
69   1  0.8226  5.476760  2.100370  5.670280
70   1  0.8410  5.423330  1.850000 18.179000
71   1  0.8202  5.396420 13.244900  6.092070
72   1  0.8113  5.466270 13.744700 17.763500
73   1  0.8306  9.799850  1.848500  5.621450
74   1  0.8396  9.593890  1.924730 18.486900
75   1  0.8013  9.547820 13.234200  5.755850
76   1  0.8354  9.451620 13.502100 18.051800
77   1  0.8136 13.844100  1.822620  5.988300
78   1  0.8613 13.705100  1.963830 18.398100
79   1  0.8514 13.950400 13.843000  5.123240
80   1  0.8326 13.944400 13.710200 17.951700
81   1  0.8385  3.381270  9.774300  6.139310
82   1  0.8521  3.339440  9.511120 18.286000
83   1  0.8306  3.689970 21.579000  6.254240
84   1  0.8882  3.251870 21.453900 18.390400
85   1  0.8395  7.452890  9.412780  6.400080
86   1  0.8051  7.660860  9.753680 18.177800
87   1  0.8639  7.576210 20.897400  6.033850
88   1  0.8064  7.537070 21.152500 18.408400
89   1  0.8595 11.488200  9.381000  6.371940
90   1  0.8169 11.741300  9.472880 18.567000
91   1  0.8598 11.743400 21.147700  6.344880
92   1  0.8700 11.470100 21.227000 18.877200
93   1  0.8085 16.149600  9.947310  6.209860
94   1  0.8702 15.910200  9.557580 18.690700
95   1  0.8077 16.013300 21.011400  6.203600
96   1  0.8314 15.574600 21.523600 18.559700
97   1  0.8052  3.134540  7.458740 12.536400
98   1  0.8276  3.039580  7.569020  0.196200
99   1  0.8206  3.377140 19.168900 12.198200
100  1  0.8323  3.284020 19.593700  0.392800
101  1  0.8167  7.469920  7.748640 12.577500
102  1  0.8373  7.283420  7.862390 -0.027116
103  1  0.8328  7.214930 19.237300 12.208000
104  1  0.8304  7.337530 19.384300  0.231027
105  1  0.8339 11.700200  7.526720 12.343000
106  1  0.8516 11.567800  7.721780  0.298875
107  1  0.8218 11.597700 19.259600 12.048700
108  1  0.8439 11.728100 19.456900  0.525826
109  1  0.8115 15.729600  7.733130 12.346300
110  1  0.8775 15.738600  7.889500  0.163820
111  1  0.8217 16.134000 19.225500 12.403900
112  1  0.8437 16.049700 19.081500  0.334432
113  1  0.8515  0.868525  3.801070 24.158700
114  1  0.8206  1.327020  3.947080 12.197800
115  1  0.8175  0.792259 15.409300 24.724500
116  1  0.8408  1.167210 15.434500 12.173700
117  1  0.8452  5.301390  3.860780 24.099700
118  1  0.8497  5.581470  3.914550 12.051400
119  1  0.8508  4.985010 15.298700 24.337300
120  1  0.8366  5.428340 15.396200 12.181900
121  1  0.8463  9.290630  3.905440 24.219300
122  1  0.8466  9.602270  3.771210 11.898300
123  1  0.8271  9.449830 15.517400 24.205200
124  1  0.8417  9.640120 15.480600 11.848900
125  1  0.8484 13.737400  3.775140 24.740500
126  1  0.8129 13.742600  3.961870 12.059600
127  1  0.8245 13.588700 15.639500 24.088400
128  1  0.8166 13.968600 15.431600 12.069000
129  2 -0.5158  0.972369  3.496740  8.504020
130  2 -0.5048  1.096050  3.511230 20.815900
131  2 -0.5028  0.940340 15.324100  8.296380
132  2 -0.4226  1.316020 15.193600 20.947900
133  2 -0.4902  5.497590  3.618310  8.533410
134  2 -0.5228  4.981590  3.465120 20.777600
135  2 -0.5093  5.259870 14.964000  8.420990
136  2 -0.3895  5.089970 14.734200 20.719600
137  2 -0.4878  9.185610  3.624500  8.638710
138  2 -0.5735  9.330860  3.576860 20.952900
139  2 -0.5382  9.335520 14.959800  8.407040
140  2 -0.5313  9.517270 15.098800 21.023800
141  2 -0.5240 13.336700  3.414610  8.493650
142  2 -0.5577 13.569200  3.381390 20.833400
143  2 -0.4287 13.859900 15.273000  8.438910
144  2 -0.5348 13.536200 15.024000 20.824200
145  2 -0.5190  3.154990  7.905920  3.834250
146  2 -0.5365  2.974750  7.824410 16.048700
147  2 -0.4990  3.417170 19.907200  3.618350
148  2 -0.5491  3.330770 19.854200 16.155000
149  2 -0.4819  7.492010  7.757220  3.621780
150  2 -0.5488  7.600260  8.334560 15.773300
151  2 -0.5592  7.611990 19.403800  3.560520
152  2 -0.4959  7.773310 19.550000 15.852200
153  2 -0.5845 11.681000  7.869180  3.963360
154  2 -0.5315 11.645400  7.920270 15.866400
155  2 -0.5398 11.717100 19.668900  3.675810
156  2 -0.4028 11.548800 19.717300 15.965500
157  2 -0.4492 15.864700  8.386560  3.580200
158  2 -0.4971 15.745800  8.014180 15.883800
159  2 -0.5379 16.074100 19.581900  3.385270
160  2 -0.5020 15.821700 19.689900 15.869500
161  2 -0.4523  3.250700  9.375560  9.855590
162  2 -0.5172  2.949580  9.005980 21.847700
163  2 -0.5010  3.443230 21.127000  9.568290
164  2 -0.4809  3.179150 21.208300 22.091300
165  2 -0.4794  7.330940  9.247040  9.550030
166  2 -0.5052  7.104100  9.191430 21.506300
167  2 -0.5088  7.289220 20.711600  9.606010
168  2 -0.5397  6.835320 21.126800 22.345800
169  2 -0.4801 11.867100  9.430180  9.726820
170  2 -0.5216 11.445500  9.364190 22.018100
171  2 -0.5474 11.888600 20.534900  9.660810
172  2 -0.5211 11.767800 20.789200 22.328700
173  2 -0.4883 15.909800  9.493730  9.760120
174  2 -0.5577 15.980200  9.286660 21.911400
175  2 -0.5304 16.457500 20.734000  9.456080
176  2 -0.4516 15.992100 20.742000 21.953900
177  2 -0.4887  1.175420  2.364340  2.432610
178  2 -0.5543  1.427890  2.082570 14.427200
179  2 -0.5502  1.030320 13.624400  2.273860
180  2 -0.5586  1.097250 13.607800 14.536400
181  2 -0.5045  5.373980  2.242650  2.397910
182  2 -0.4606  5.515610  2.114990 14.527300
183  2 -0.4876  5.021710 13.771400  2.246450
184  2 -0.5699  5.615340 13.839000 14.444700
185  2 -0.5303  9.355620  2.122780  2.213350
186  2 -0.4887  9.867990  1.997860 14.415100
187  2 -0.5011  9.698610 13.811200  2.508070
188  2 -0.4866  9.573390 14.050300 14.702600
189  2 -0.5383 13.634100  2.396950  2.513420
190  2 -0.4675 13.752500  1.978440 14.382200
191  2 -0.5647 13.694200 13.682500  1.970690
192  2 -0.5641 13.912500 13.969700 14.757900
193  2 -0.5765  1.387570 11.034600  4.503710
194  2 -0.5125  0.854732 10.723400 16.834700
195  2 -0.4862  1.201780 22.539200  4.542100
196  2 -0.5109  0.972205 22.589200 16.757300
197  2 -0.5369  5.484250 10.819000  4.457280
198  2 -0.5641  5.189180 11.057700 16.665900
199  2 -0.5400  5.819550 22.455700  4.464490
200  2 -0.5046  5.573820 22.580700 16.690500
201  2 -0.5426  9.469300 10.527000  4.645720
202  2 -0.5436  9.857370 10.948400 16.748600
203  2 -0.5180  9.810390 22.334300  4.637450
204  2 -0.4708  9.735630 22.303600 16.887900
205  2 -0.4901 13.434100 11.084000  4.485390
206  2 -0.4963 13.772400 10.862200 16.981100
207  2 -0.5108 13.688700 22.468000  4.429660
208  2 -0.4958 13.542200 22.523000 17.137300
209  2 -0.5255  3.427290  0.941220  7.405690
210  2 -0.5115  3.162630  0.643087 19.563900
211  2 -0.6058  3.345810 12.040500  7.698560
212  2 -0.4501  3.236720 12.122100 19.356900
213  2 -0.4479  7.654020  0.579991  7.520210
214  2 -0.5518  7.199400  0.654447 19.839000
215  2 -0.5758  7.289350 11.979700  7.621700
216  2 -0.5145  7.613110 12.327400 19.715800
217  2 -0.4737 11.405800  0.546906  7.677900
218  2 -0.5740 11.515100  0.694231 19.816400
219  2 -0.4149 11.723600 12.189100  7.478650
220  2 -0.4658 11.734900 12.229000 19.591200
221  2 -0.5829 15.692800  0.687070  7.529840
222  2 -0.5805 15.861700  0.930572 19.780800
223  2 -0.4884 15.769000 12.563400  7.241530
224  2 -0.5215 15.909000 12.299700 19.681000
225  2 -0.4770  3.125360  5.108140  1.535000
226  2 -0.5986  3.696920  5.019140 13.743100
227  2 -0.5509  2.971800 16.792400  1.523760
228  2 -0.5548  3.069830 16.689200 13.690700
229  2 -0.4796  7.394340  5.085770  1.315680
230  2 -0.5460  7.670090  5.106590 13.659100
231  2 -0.4878  7.096900 16.531600  1.475910
232  2 -0.4836  7.379370 16.634400 13.625600
233  2 -0.5076 11.633700  4.992420  1.524910
234  2 -0.5453 11.368400  4.967810 13.516400
235  2 -0.5204 11.721600 16.611000  1.539290
236  2 -0.5050 11.552600 16.722300 13.471400
237  2 -0.5127 16.030500  5.442170  1.456730
238  2 -0.5923 16.017900  5.070350 13.613800
239  2 -0.6268 15.546500 16.644400  1.488460
240  2 -0.5132 15.887600 16.660500 13.927500
241  2 -0.5161  1.169580  6.554170 10.714100
242  2 -0.4938  0.860668  6.376650 22.944000
243  2 -0.5354  1.414970 18.023400 10.789300
244  2 -0.5084  1.378300 18.034700 23.202300
245  2 -0.5162  5.422130  6.477220 10.711900
246  2 -0.5238  5.290650  6.406340 22.890000
247  2 -0.5085  5.396800 18.027000 10.402600
248  2 -0.4884  5.223070 17.834700 22.797800
249  2 -0.5453  9.575030  6.590830 10.780100
250  2 -0.5115  9.588060  6.713450 23.096800
251  2 -0.5566  9.287430 17.897200 10.481600
252  2 -0.5779  9.599440 18.091400 23.332400
253  2 -0.5975 13.775200  6.459950 10.792300
254  2 -0.5136 13.643800  6.586190 23.100000
255  2 -0.5377 14.070700 18.103400 10.708700
256  2 -0.5537 13.976100 18.185800 23.085000
257  2 -0.6622  1.016750  9.486900  0.905395
258  2 -0.5894  1.061150 10.218500 12.959900
259  2 -0.6225  1.216530 21.547900  0.890021
260  2 -0.6720  1.208590 21.419500 12.825100
261  2 -0.6784  5.398190  9.762300  0.710087
262  2 -0.5926  5.293880 10.069800 12.978000
263  2 -0.6696  5.280500 21.609500  0.972992
264  2 -0.6521  5.425970 21.508500 12.864500
265  2 -0.6229  9.590070 10.061500  0.793934
266  2 -0.5807  9.641780 10.013700 13.139700
267  2 -0.6686  9.506690 21.279400  0.927848
268  2 -0.6545  9.622100 21.356900 12.976200
269  2 -0.6837 13.731900  9.798870  0.962557
270  2 -0.6033 13.582700 10.157800 13.277600
271  2 -0.5861 13.969200 21.704800  0.938322
272  2 -0.5960 13.978900 21.574000 13.077200
273  2 -0.5880  3.463060  1.618830 11.151600
274  2 -0.6885  3.127450  1.643680 23.671600
275  2 -0.6158  3.289260 13.190900 11.375200
276  2 -0.6036  3.297550 12.559400 23.282900
277  2 -0.6111  7.477190  1.549440 11.362300
278  2 -0.6522  7.147820  1.683640 23.456400
279  2 -0.5850  7.552050 13.106300 11.210000
280  2 -0.5597  7.194320 13.349700 23.469600
281  2 -0.5904 11.854900  1.160380 11.054100
282  2 -0.5685 11.576400  1.439270 23.630300
283  2 -0.5922 11.662900 13.193700 11.295100
284  2 -0.5513 11.653600 12.944300 23.584800
285  2 -0.6051 16.126300  1.744030 11.183700
286  2 -0.6843 15.820800  1.710490 23.855300
287  2 -0.6607 15.877200 13.374600 11.436900
288  2 -0.5942 16.106800 12.867600 23.357500
289  2 -0.6077  3.501650  4.112910  5.177390
290  2 -0.5789  3.005780  4.105130 17.367500
291  2 -0.6063  3.279500 15.632300  5.092470
292  2 -0.6216  2.961360 16.199200 17.718600
293  2 -0.5891  7.741020  4.497940  4.998040
294  2 -0.6405  7.661590  4.078400 17.388200
295  2 -0.5967  7.596240 15.803300  4.992820
296  2 -0.6852  7.520140 15.726500 17.628600
297  2 -0.6876 11.771400  4.274280  5.473940
298  2 -0.6581 11.554000  4.117890 17.646000
299  2 -0.6039 11.717000 15.675200  5.125110
300  2 -0.6106 11.679500 15.985200 17.786700
301  2 -0.6358 15.888200  4.016550  4.953430
302  2 -0.6940 15.579000  4.150330 17.487700
303  2 -0.6537 15.866500 15.943800  5.208140
304  2 -0.6647 15.856300 15.770400 17.645700
305  2 -0.5699  1.199560  7.365700  6.973840
306  2 -0.5446  0.963281  7.093880 19.123000
307  2 -0.5591  1.557070 19.047800  6.782780
308  2 -0.5777  1.071190 19.269500 18.979900
309  2 -0.6205  5.308980  7.683320  7.185990
310  2 -0.5618  5.098980  7.175600 19.068700
311  2 -0.6225  5.433030 18.861100  6.914370
312  2 -0.6218  5.379440 19.379800 19.355300
313  2 -0.7159  9.463910  7.333350  7.068090
314  2 -0.6304  9.420350  7.231730 19.234400
315  2 -0.6450  9.499990 19.277800  6.953010
316  2 -0.7171  9.718730 19.237700 19.427200
317  2 -0.6161 13.711100  7.646650  7.153100
318  2 -0.6429 14.111600  7.360270 19.236500
319  2 -0.6307 13.801900 19.023300  6.763660
320  2 -0.6301 13.492700 19.075600 19.270100

