Generated by pymatgen.io.lammps.data.LammpsData

320  atoms

  2  atom types

0.000000 24.637781  xlo xhi
0.000000 17.058433  ylo yhi
0.000000 27.370788  zlo zhi

Masses

1  208.9804
2   78.9600

Atoms

1    1  0.6796 -0.861966 17.951700  2.456980
2    1  0.7599  0.425668 16.826300 15.183700
3    1  0.7215  3.814120 10.334400  3.945210
4    1  0.7387 -1.354350  7.890020 13.720300
5    1  0.7002 11.964400  6.934040  3.239930
6    1  0.7056  7.028980 16.884700 14.200400
7    1  0.6603 17.571500 14.715400  4.713990
8    1  0.7430  8.597650  9.495580 17.625400
9    1  0.6917  3.228990  5.891100  9.078610
10   1  0.5273  1.332340 17.023700 26.281700
11   1  0.7300  1.075120 15.314500  8.460570
12   1  0.7696  3.856010 18.282700 24.193600
13   1  0.6806 14.472400  5.814180 17.080400
14   1  0.7273 15.694700  5.258200 25.282900
15   1  0.7132 15.962000 14.806400 12.046000
16   1  0.5194 16.603000 13.624900  0.527993
17   1  0.8028  2.886180 18.553000  3.807410
18   1  0.8077  4.031030  6.071340 17.184100
19   1  0.7377  3.937380 15.712400  1.051490
20   1  0.7741  2.444380 12.137500 20.603900
21   1  0.7061 16.050800  5.094970 10.013300
22   1  0.6289 17.228900  3.054250 18.464100
23   1  0.7147 18.506700 10.580600  4.141940
24   1  0.7783 15.601900 10.472300 21.211500
25   1  0.7824 21.750500 16.877500 12.571600
26   1  0.6476 -1.330550 17.934500 24.337400
27   1  0.8131 -2.090210 10.820900 11.578000
28   1  0.7409 -1.742450  6.588110 22.321500
29   1  0.7596 12.078900 16.641700 10.695300
30   1  0.7198  9.455070 17.154600 18.933600
31   1  0.7295  4.779600 13.765800 10.865300
32   1  0.7022 12.371700  8.850910 19.463500
33   1  0.7013  1.526180  5.510030  5.320920
34   1  0.5671 20.856300  5.224110 17.581300
35   1  0.7566 21.267300 14.846600  4.746100
36   1  0.7336 -2.276420 13.232600 15.580100
37   1  0.8259 13.146500  7.015950  8.268300
38   1  0.6616  7.233180  3.795770 17.669700
39   1  0.7227  7.438900 17.580300  3.369480
40   1  0.7845  7.909460 13.579100 17.580100
41   1  0.6514 20.437500  4.219990  8.680870
42   1  0.8026  0.445534  2.862420 21.335600
43   1  0.7199 19.322700 13.292600 12.366100
44   1  0.6875 -0.115671 14.039600 23.052100
45   1  0.5428 11.734000  6.151690 13.344500
46   1  0.7755  7.462930  6.706030 26.791200
47   1  0.6810  9.514880 13.781200 12.291500
48   1  0.7449  9.441880 11.640500 26.482700
49   1  0.7641  1.375970 13.238500  3.509940
50   1  0.7294  5.490200  3.421310 20.548900
51   1  0.6435  2.775790  6.855130  2.630230
52   1  0.7656  0.538428 10.492800 16.350300
53   1  0.7823 17.022800 13.802400  8.639270
54   1  0.6538 12.812400  5.529400 21.377000
55   1  0.7655 21.272400  9.235130  8.570950
56   1  0.7053 -1.002150  7.111400 17.923400
57   1  0.7632  3.728820 17.203000  7.580250
58   1  0.6014  8.627100  2.164110 26.232600
59   1  0.6017  2.829230  6.541490 12.773300
60   1  0.7078  4.805730 12.924800 25.140300
61   1  0.6416 16.259200 18.257500  8.473070
62   1  0.7622 19.180200 16.931600 21.537300
63   1  0.7091 13.278300 12.238400  9.112340
64   1  0.7007 13.683600  8.894330 23.662900
65   1  0.7316 -0.172320  9.625530 24.963500
66   1  0.7380 -0.258427  4.569020 13.058600
67   1  0.7998  4.888190  3.905620  0.826306
68   1  0.6498  1.316760 14.235700 12.131600
69   1  0.6473 10.007500  9.388760 23.980500
70   1  0.4421  9.852350  6.946930 15.416300
71   1  0.6706 14.341400 16.517300  0.200941
72   1  0.7478 11.920400 17.161300 15.163800
73   1  0.7840  4.855210  7.848010 23.107300
74   1  0.7157 10.423600  3.621760 12.028400
75   1  0.5848  8.243440 15.630400 26.139000
76   1  0.8469  4.835140 13.105400  6.669330
77   1  0.8286 -0.918124  7.881130  0.952438
78   1  0.7503 19.562400  4.984510 13.017800
79   1  0.7377 21.184900 16.577500  0.273499
80   1  0.7618 20.274100 18.194100 16.132900
81   1  0.6733 -0.649431  4.111360 25.760400
82   1  0.7567  2.209550  1.332680 12.678700
83   1  0.7837  3.746890  9.714340  0.337425
84   1  0.6453  3.297980 14.331700 14.843100
85   1  0.6350 12.379100  7.506780 26.777000
86   1  0.8044 13.094800  2.559630 19.126000
87   1  0.5761 14.827000 11.352300  0.630970
88   1  0.6495 14.013700  9.379970 12.319500
89   1  0.7185 15.143900  2.656940 22.659800
90   1  0.7047  6.355600  3.251990 12.934500
91   1  0.8371  8.302040 11.420100 20.830400
92   1  0.7936  6.123980 10.054900 12.934700
93   1  0.7509 20.618500  4.137950 24.339100
94   1  0.6327 18.141100  1.758610 12.734000
95   1  0.7359 20.893600 11.106500 26.381900
96   1  0.7926 18.119200  8.491170 11.470400
97   1  0.7736 -0.343061 10.009000  5.535260
98   1  0.7565  3.101660  4.937570 24.623900
99   1  0.5875 -0.708088  1.910360  6.258130
100  1  0.7355 -1.380970 15.570800 18.508200
101  1  0.6307 10.426100  9.828310 10.808300
102  1  0.7840 17.553600  6.602400 20.263900
103  1  0.6956 11.986200  2.161300  7.190370
104  1  0.6444 11.134000 17.389600 24.817300
105  1  0.7409  7.371880  6.720090 10.440800
106  1  0.7323  4.683920  9.164680 19.494500
107  1  0.6459  8.430570 15.392300  9.383000
108  1  0.7350  5.689640 15.925400 21.918900
109  1  0.7205 16.424300 10.094000  8.092790
110  1  0.7221 19.082000  8.620140 23.599000
111  1  0.6204 20.744200 17.534000  8.516320
112  1  0.7117 15.492500  3.189660 14.097300
113  1  0.7427  0.271735  2.874250  9.775100
114  1  0.5832  0.763899 13.880500 26.312400
115  1  0.7997  2.032060  9.753150 10.806500
116  1  0.6727  1.481900  6.942720 21.261200
117  1  0.6680  8.233490  1.770630  8.046720
118  1  0.7847 13.606700 16.172300 21.977200
119  1  0.5999 14.233000 10.692400  4.674320
120  1  0.8054 11.837800 13.141000 24.037700
121  1  0.6530  5.138750  4.383110  5.434540
122  1  0.6308  9.032790  4.095360 20.797000
123  1  0.8048  4.701160  9.313420  8.034280
124  1  0.8082 11.709600 13.936100 19.597900
125  1  0.5963 20.775900  3.395420  5.302270
126  1  0.6016 21.575900  3.372490 20.457100
127  1  0.7348 21.477800 13.464400  8.925790
128  1  0.7316 17.390800 13.905600 23.256200
129  2 -0.6407  2.863760  3.576520 10.728000
130  2 -0.6633  6.122760  6.115580 18.866700
131  2 -0.6260  5.490780 15.293900  8.857630
132  2 -0.7157  5.393680 16.162700 25.550800
133  2 -0.6377 18.649700  6.247030 10.486300
134  2 -0.3954 21.857800 10.947100 23.306600
135  2 -0.6943 20.101200 11.061900 10.426700
136  2 -0.4628 19.470100 13.649900 26.081600
137  2 -0.7231 18.995200  2.197230 10.205500
138  2 -0.4039  3.708310 17.855900 21.374700
139  2 -0.4992  1.747950 12.121600  9.811020
140  2 -0.5069  2.545290 10.785200 25.146300
141  2 -0.6849 15.789500  8.254200  9.878360
142  2 -0.6080 11.165800 10.453800 21.872500
143  2 -0.5743 14.775000 15.051700  9.484400
144  2 -0.5539 14.310800 17.548300 24.602900
145  2 -0.4779 15.904800  8.471970  5.964190
146  2 -0.6247  2.126240  8.097040 18.958000
147  2 -0.1302 14.657500  3.550110  0.678975
148  2 -0.5993  2.168790 16.800900 10.467900
149  2 -0.1482  9.236390 11.412500  7.500780
150  2 -0.1030 14.436500 15.221200 15.822700
151  2  0.0660  8.942460 11.435400  3.702180
152  2 -0.5511 10.016100 11.847900 18.773500
153  2 -0.5305  4.307730  7.165190 25.789400
154  2 -0.4400 -2.005160  9.498480 16.434300
155  2 -0.4733 21.045500 11.935600  6.240810
156  2 -0.5490  6.284490 11.674600 18.543600
157  2 -0.5967  5.414370 11.861700  8.903720
158  2 -0.4211 13.217200  8.798740 16.842400
159  2 -0.0041 17.631500  5.423460  1.617540
160  2 -0.4841  3.713120  4.407610 14.698800
161  2 -0.7626  3.086400  3.925280  3.442280
162  2 -0.6747  4.549510  3.278090 25.797100
163  2 -0.5128  7.802130  9.197110  9.759360
164  2 -0.5239  6.735260  8.913220 21.252100
165  2 -0.6695 21.753900 15.911800 15.989200
166  2 -0.4610 20.106300  1.433050 24.709700
167  2 -0.5253 -1.146150 10.975100  9.158430
168  2 -0.3094 19.391100  7.482610 26.967900
169  2 -0.4719 22.369600  3.821680 10.717100
170  2 -0.6198  4.420640 18.241400  1.441540
171  2 -0.7601  3.960450  8.216320 10.486000
172  2 -0.6368  3.230450  4.449740 21.570800
173  2 -0.4963 12.801100  2.807280 13.229300
174  2 -0.5872 12.145100  2.148150 21.590300
175  2 -0.3815 13.981100 13.608700  6.465180
176  2 -0.6685 12.016800 10.519300 25.777900
177  2 -0.5956  1.548960  9.434160  1.636020
178  2 -0.8415 -1.552520  3.787650 23.406300
179  2 -0.0055  8.473430  9.532000  6.028080
180  2 -0.5096 16.252100 10.574800 23.850500
181  2 -0.3201  8.415280  4.003840  4.287790
182  2 -0.6660 10.181900  3.173410 18.390200
183  2 -0.6045 22.224800  7.150820 24.910400
184  2  0.0203 19.430700  9.119620 17.061100
185  2 -0.5249 12.681800 10.819000  2.480020
186  2 -0.3781  3.510440 11.432200 16.441800
187  2 -0.5149  7.817450  4.411300  0.706164
188  2 -0.5120  7.198540 17.727500 17.615600
189  2 -0.0218 18.496100  2.445060  0.886223
190  2 -0.2254 14.100900 11.832800 18.593200
191  2 -0.1813 17.755000  2.290420  4.134800
192  2 -0.5351  8.635760 14.336900 20.491800
193  2 -0.5767  5.418820  7.815230  1.609240
194  2 -0.3255 -0.304238  2.497290 18.640900
195  2 -0.5822 -1.667970 17.599300  9.854150
196  2 -0.5979 13.594400 13.357000 21.982600
197  2 -0.5467 13.121900  4.427240 24.171300
198  2 -0.8000 14.522300  4.700820 19.792200
199  2 -0.1339 11.301000  1.690720  2.925980
200  2 -0.6188  9.238780 12.551000 23.989000
201  2 -0.4318 -0.656293  7.054090  3.750350
202  2 -0.4451  5.840610  7.662920 14.902900
203  2 -0.4211  9.894030 16.597300  6.582020
204  2 -0.2249  4.341980 15.431300 18.876700
205  2 -0.4665 21.516500  7.952100 11.172000
206  2 -0.0842 -2.752010 10.608500 19.752200
207  2 -0.2117 14.156000 16.571000  4.067170
208  2 -0.3070 18.576300  8.940180 20.159200
209  2 -0.5789  0.267653  7.234950 11.198500
210  2 -0.4898 -0.829830 10.798500 27.129900
211  2 -0.6943 -0.095835 16.253500 12.621600
212  2 -0.4793 -1.728620 14.705600  1.894000
213  2 -0.7177  7.768190  5.453060 12.969400
214  2 -0.3527  7.062990 14.826000  2.032350
215  2  0.0236 17.540000 14.338900 17.167400
216  2 -0.4214 10.515900 13.540700  0.181440
217  2 -0.5218  0.421485  2.428950 14.604900
218  2 -0.5626  0.924596  2.134090  1.002480
219  2 -0.6639 -0.591796 11.476700 13.916500
220  2 -0.3999 -0.556762 11.466500  3.258690
221  2 -0.5505  8.838880  2.076300 14.748500
222  2 -0.6035 16.660300  5.896090 22.610300
223  2 -0.5246 10.129600 14.724000 16.920000
224  2 -0.2371  8.236660  9.967930  2.579640
225  2 -0.6295  2.137280 16.006700  3.245160
226  2 -0.5777 16.181900 16.560700 21.817800
227  2 -0.4428 -0.975724  5.104440  7.925290
228  2 -0.5945 14.936000 13.651900 25.661200
229  2 -0.2098 17.218000  1.858450 26.041500
230  2 -0.6506  9.664850 16.664900 11.828500
231  2  0.0700 16.386100  4.621080  3.377620
232  2 -0.4058 12.394300 14.196200 13.174800
233  2 -0.5281  5.744510  6.503250  7.789500
234  2 -0.5721  7.277440 13.550100 13.516200
235  2 -0.6081  0.893441  7.037160 25.866700
236  2 -0.3601  0.959669  8.207120  7.762680
237  2 -0.2793 12.090800  4.446630  0.440030
238  2 -0.1187 16.551800 14.121500 18.936500
239  2 -0.5461 -1.268380  3.262900  3.853270
240  2 -0.3473 18.811600  7.401940 14.057700
241  2 -0.7132  3.207080  8.216860  5.148990
242  2 -0.5981  1.969520  9.704690 21.782200
243  2 -0.6040  2.578010 14.811200  6.382860
244  2 -0.6091  2.834210 14.576400 23.650800
245  2 -0.5189 12.212400  9.517650  8.015720
246  2 -0.5824 18.719000  2.719320 21.670000
247  2 -0.6759 18.243100 15.403400 10.734200
248  2 -0.2549 16.315200 17.477500 17.292000
249  2 -0.6776  1.686990  2.996640  6.931830
250  2 -0.5134  6.011190  5.630670 23.399900
251  2 -0.6011  3.975560 11.629700 12.679200
252  2 -0.4342  5.325040 11.946400 22.088600
253  2 -0.0930 14.574000  1.486560  4.401470
254  2 -0.5971 20.227200 17.890800 18.808000
255  2 -0.7023 15.849400 11.592200 10.433700
256  2 -0.6070 10.833000 15.773000 22.844600
257  2 -0.1795 10.193900  7.067190  5.787970
258  2 -0.6372  9.666980  7.840200 19.466900
259  2 -0.4950  6.714080 10.010700 25.336800
260  2 -0.3952  0.156952 11.924600 19.165100
261  2 -0.3767 17.566900 16.363400  1.650510
262  2 -0.7165 18.154800  3.324280 15.370400
263  2 -0.6303 18.894400 15.125000  7.061530
264  2 -0.3968 20.225200 11.366800 14.154900
265  2 -0.6586  5.701530 18.216800  5.581830
266  2 -0.3544  4.047590  3.449170 18.408400
267  2 -0.7427 -1.618780 15.330700 25.028300
268  2 -0.3898 18.236400 15.837200 14.786200
269  2 -0.5882  9.916430  6.366260 25.651700
270  2 -0.5915 14.485600  6.133050 14.139000
271  2 -0.3972 14.838600  7.864320  2.433190
272  2  0.0282 17.835900 11.300400 17.136000
273  2 -0.5143 20.926500 17.667600  2.793120
274  2 -0.7774  1.296720  1.810350 24.503100
275  2 -0.5375  2.430300 11.513700  6.237800
276  2 -0.2164 20.927200 13.726600 21.054200
277  2 -0.6749 12.051200  7.386640 10.840800
278  2 -0.5764 13.909000  2.937910 16.413100
279  2 -0.3803 11.125900 10.728000 13.990000
280  2 -0.4817  7.980050 10.016400 14.706100
281  2 -0.2893 21.161200  9.223780  1.654580
282  2 -0.8094 -0.716154  5.612020 20.265300
283  2 -0.6366 -2.661630 13.638000 11.564300
284  2 -0.5385 21.635300  2.030750 13.816900
285  2  0.0535 10.918900 13.490900  5.227840
286  2 -0.3162 12.870600  4.748600  5.372570
287  2 -0.5805 11.122900 14.026400  9.425140
288  2 -0.5878  7.999590 18.499900 21.943700
289  2 -0.6076 10.785000  1.883930 10.021500
290  2 -0.2717  3.787440 17.902000 15.930800
291  2 -0.3466  9.625550  4.964230  8.764900
292  2 -0.3559  1.104720 14.973900 20.540300
293  2 -0.4525 16.897100  4.007870  7.367720
294  2 -0.0105 20.411000 11.758200 18.910200
295  2 -0.6974 17.506500 12.187200  6.248220
296  2 -0.6325 20.379600  6.412490 22.014700
297  2 -0.7346 -1.809490 16.268700  6.496390
298  2 -0.4853 -1.586040 17.278400 21.112900
299  2 -0.3041 20.312000  7.738000  5.970310
300  2 -0.5676 -2.554090  5.422460 14.529700
301  2 -0.4686 13.191700  4.300740  9.315520
302  2 -0.5053 12.704900 16.868900 18.789400
303  2 -0.0163 11.479300 14.223600  3.471980
304  2 -0.7853 14.499500  8.213560 21.249000
305  2 -0.4799  5.954770  2.198490  9.359050
306  2 -0.4844  5.250030 12.684900  4.084840
307  2 -0.6532  0.717267 14.352100 16.210900
308  2 -0.6350  2.933150 13.085900  0.522129
309  2 -0.5172 18.554400  6.435250 17.792900
310  2 -0.5500 14.900700  8.557970 26.110600
311  2 -0.1757 15.296900 11.979200 14.090000
312  2 -0.3308 18.834700 12.013500 22.161500
313  2 -0.6463  0.658072  7.365720 15.498100
314  2 -0.2881 21.841800  4.030160  0.751056
315  2 -0.6381  4.731930 16.487700 12.833400
316  2 -0.5466 10.125800 16.865500  0.252881
317  2 -0.0550 16.416400  8.744680 15.591200
318  2 -0.0948 18.914600  6.205130  5.285940
319  2 -0.5823 15.330500 18.231900 11.406200
320  2 -0.5802 19.093000 12.818900  2.670020

