Generated by pymatgen.io.lammps.data.LammpsData

216  atoms

  2  atom types

0.000000 18.096178  xlo xhi
0.000000 18.140645  ylo yhi
0.000000 18.233787  zlo zhi

Masses

1  208.9804
2   78.9600

Atoms

1    1  0.6583  0.259426 18.103400 17.285800
2    1  0.6668  0.717767 17.847300  5.490190
3    1  0.8058 -0.016895 -0.037060 11.825500
4    1  0.7603 18.225700  6.234420 18.269600
5    1  0.8427  0.005005  5.403160  5.704340
6    1  0.8082  0.666173  5.506540 11.713800
7    1  0.7276 17.674800 11.767300 18.234700
8    1  0.7231 17.644200 11.224100  5.751690
9    1  0.7046 17.850600 12.255800 11.690800
10   1  0.8108  6.016960 17.891200 18.243800
11   1  0.8331  6.793880 18.345200  5.763780
12   1  0.7614  6.160560  0.412030 11.704800
13   1  0.8579  7.136270  5.835270 17.424400
14   1  0.6321  7.316000  6.296710  5.371480
15   1  0.8977  6.508200  5.870870 11.867600
16   1  0.7902  5.965480 11.459100 18.095400
17   1  0.7721  6.439660 11.846400  5.674710
18   1  0.6861  5.826630 11.670100 11.353900
19   1  0.8096 12.390600 -0.070624 17.990400
20   1  0.7536 12.584300 18.118200  5.292790
21   1  0.7968 12.012700 -0.019600 11.944800
22   1  0.7554 12.623300  5.649240 17.949300
23   1  0.9074 12.840600  5.523470  5.263470
24   1  0.7133 12.509700  6.406610 11.489400
25   1  0.7386 12.125200 12.094700 18.049500
26   1  0.8442 12.161200 11.687500  5.085540
27   1  0.7470 11.523700 12.469700 11.919600
28   1  0.7376  0.690157  2.390770  2.811600
29   1  0.7919  0.595704  2.682910  8.770200
30   1  0.6455  0.189300  2.416970 14.912600
31   1  0.7174 -0.426042  8.384470  2.483010
32   1  0.7918  0.260211  8.619460  8.666170
33   1  0.8453  0.001858  9.012020 14.070600
34   1  0.7853  0.502827 14.551900  2.731870
35   1  0.7185 -0.126628 15.010100  8.976620
36   1  0.7610 17.691900 14.329400 14.346700
37   1  0.6516  6.336990  3.363660  2.898540
38   1  0.8397  6.044130  2.806420  8.631150
39   1  0.8484  7.066320  3.339440 14.691300
40   1  0.7143  6.476000  8.374720  3.310960
41   1  0.6844  6.059450  8.884700  8.325700
42   1  0.8160  6.098550  9.052190 14.780100
43   1  0.8720  6.155180 14.736900  2.410930
44   1  0.8728  5.667210 15.124400  8.593910
45   1  0.6915  5.818260 14.901600 14.418100
46   1  0.7580 13.012700  2.612120  2.415500
47   1  0.7437 12.501600  2.439430  9.210300
48   1  0.7573 12.892700  2.899070 15.076100
49   1  0.8535 11.988900  8.968060  2.217490
50   1  0.7539 12.534600  8.883170  8.510580
51   1  0.8298 12.106400  9.159050 14.810300
52   1  0.7017 11.782900 14.783400  2.514650
53   1  0.7063 11.331200 14.371600  8.603490
54   1  0.8432 12.433600 15.232000 14.836700
55   1  0.7495  3.474120 17.494600  2.239840
56   1  0.6753  3.196180 18.009900  8.637150
57   1  0.7351  3.177290 17.968200 15.307800
58   1  0.8166  3.806400  6.412930  2.957460
59   1  0.8102  3.818460  5.720330  8.527220
60   1  0.7606  3.246240  6.000670 14.908600
61   1  0.8225  3.000890 11.563400  3.178280
62   1  0.7483  2.288030 11.850100  8.349630
63   1  0.7473  3.193610 12.075000 14.548300
64   1  0.6393  9.523040 17.832300  2.519060
65   1  0.8839  9.570950 -0.048413  8.827620
66   1  0.7593  9.334170 -0.006658 14.917200
67   1  0.7858  9.414710  5.559080  2.858960
68   1  0.8293  9.408100  6.133760  9.157000
69   1  0.7559  9.729580  6.525260 14.945300
70   1  0.8792  9.569650 11.962300  2.204180
71   1  0.6289  9.188220 11.573100  9.231820
72   1  0.8181  8.738880 12.626700 14.926700
73   1  0.8649 15.680500 17.316000  2.339870
74   1  0.7007 14.804800 17.023900  8.635390
75   1  0.7967 15.284800 18.166400 15.194200
76   1  0.7349 15.349500  5.599870  2.177210
77   1  0.7709 15.381600  6.024640  8.097300
78   1  0.7822 15.217100  5.705110 14.659700
79   1  0.7155 15.283600 11.329600  2.189820
80   1  0.7628 14.544600 11.803900  8.653250
81   1  0.6990 15.882600 11.574000 14.796500
82   1  0.7986  2.880480  3.486790 17.936400
83   1  0.7785  2.945430  2.833960  5.782490
84   1  0.7195  3.702930  3.084400 12.542600
85   1  0.8671  3.291370  8.978260 16.884000
86   1  0.6587  3.553840  8.542250  5.540850
87   1  0.8824  3.070320  8.440250 11.451200
88   1  0.7492  3.718590 14.890900 17.534800
89   1  0.8749  3.459600 15.101800  5.580930
90   1  0.7496  2.307710 14.477100 11.369500
91   1  0.8381  9.890310  2.652110 17.583900
92   1  0.7752  9.460340  2.520690  5.891370
93   1  0.6793  9.903890  2.437280 11.449200
94   1  0.7136  9.010140  8.714670 17.624700
95   1  0.8409  9.608460  8.385830  6.596280
96   1  0.8111  9.196890  8.962750 11.711300
97   1  0.7251  9.355940 14.904900 17.636200
98   1  0.7124  8.890670 14.177400  6.138390
99   1  0.7474  8.539160 14.084500 11.530100
100  1  0.7873 15.528800  2.181320 17.653500
101  1  0.8063 15.761600  2.127490  5.434080
102  1  0.8021 15.700900  3.015710 11.484300
103  1  0.6749 15.285000  8.417710 17.199500
104  1  0.6850 14.813600  8.345880  4.612660
105  1  0.7975 15.152600  9.221860 11.260800
106  1  0.6418 14.727600 14.258300 -0.012995
107  1  0.8245 14.693300 14.284300  4.868820
108  1  0.7479 14.994600 15.066500 11.371400
109  2 -0.8803  3.556560 17.783100 17.809200
110  2 -0.7828  3.748840  0.296012  5.313990
111  2 -0.7089  3.571950 17.823100 11.428400
112  2 -0.5730  2.813880  6.372940 18.546100
113  2 -0.8137  3.797390  5.859970  5.835960
114  2 -0.8076  3.473720  5.894950 11.766800
115  2 -0.6515  3.346360 11.484200 18.048300
116  2 -0.8004  3.604780 11.663600  5.718690
117  2 -0.7756  2.758200 11.885500 11.115200
118  2 -0.8342  9.578670 18.095000 17.700200
119  2 -0.6970  9.348100 17.478600  6.012930
120  2 -0.7124  9.542710 17.648800 11.864700
121  2 -0.7727  9.824490  5.453500 18.182600
122  2 -0.7377  9.876840  5.393780  5.485230
123  2 -0.7563  9.392760  6.067310 12.149600
124  2 -0.7934  9.025620 11.845100 17.692500
125  2 -0.6160  9.588750 11.231000  4.853210
126  2 -0.8935  8.920130 11.786700 12.303600
127  2 -0.8299 15.205400 17.543200 17.981300
128  2 -0.6931 15.197600 17.208800  5.213890
129  2 -0.6749 15.229200 18.086200 11.927200
130  2 -0.7893 15.583400  4.813690 17.908400
131  2 -0.7933 15.228100  4.953860  5.286150
132  2 -0.6382 15.541700  5.979070 11.652600
133  2 -0.8734 15.063400 10.981800 17.378400
134  2 -0.8149 15.141800 11.490900  5.238820
135  2 -0.7888 14.936100 12.027100 11.422100
136  2 -0.7024  3.512950  3.600000  2.465340
137  2 -0.8573  3.456640  3.167130  8.222310
138  2 -0.8359  3.348220  3.310320 15.271300
139  2 -0.6664  3.467150  9.085630  2.520950
140  2 -0.8166  2.896280  8.590650  8.863830
141  2 -0.8252  3.258970  8.760300 14.253200
142  2 -0.8254  3.457690 14.512700  2.974700
143  2 -0.7634  2.943210 14.809500  7.964640
144  2 -0.7431  2.984300 15.119600 14.915300
145  2 -0.7579 10.481400  2.978160  2.937130
146  2 -0.7884  9.486330  2.696310  8.948470
147  2 -0.7794  9.674690  3.243530 14.992200
148  2 -0.6464  9.268810  8.406120  2.964580
149  2 -0.9400  9.550490  8.946720  8.912460
150  2 -0.7356  9.079600  9.255490 14.696200
151  2 -0.7364  9.057860 14.509600  3.060850
152  2 -0.7322  8.686700 15.406500  9.172410
153  2 -0.7487  8.864480 15.107800 14.411800
154  2 -0.7414 16.050700  2.254140  2.480310
155  2 -0.6429 15.441300  2.948420  8.568690
156  2 -0.8490 15.580800  2.789560 14.562000
157  2 -0.9043 14.913900  8.643830  2.005220
158  2 -0.8452 15.117500  8.792160  8.589420
159  2 -0.7545 15.458700  8.750910 14.093500
160  2 -0.8406 15.867700 14.413600  2.503160
161  2 -0.7290 14.155000 14.410200  8.170840
162  2 -0.7026 15.017200 14.952300 14.094400
163  2 -0.7667  0.412750 17.687000  2.208170
164  2 -0.7928 -0.107325 17.470800  8.633540
165  2 -0.7489 -0.265461 17.569000 14.192300
166  2 -0.6642  0.605617  5.646370  2.754830
167  2 -0.6899  0.156873  5.564700  8.581370
168  2 -0.7251 -0.006034  6.197340 14.763200
169  2 -0.7800  0.017128 11.298900  2.634050
170  2 -0.7856 17.565700 11.772200  8.719200
171  2 -0.8908  0.548156 11.481600 14.429300
172  2 -0.7731  6.130270 -0.727650  2.638470
173  2 -0.7402  6.502040 18.505100  8.931100
174  2 -0.6730  6.097740 18.044600 15.209600
175  2 -0.8057  6.474330  5.880580  1.739580
176  2 -0.7543  6.950950  5.787800  8.966610
177  2 -0.7908  6.380600  6.084570 14.955600
178  2 -0.6933  6.964760 11.711000  2.444860
179  2 -0.7904  6.383560 12.487800  8.188230
180  2 -0.8362  5.912780 11.733600 14.771000
181  2 -0.8216 12.764800 17.664700  2.251630
182  2 -0.7888 11.994400 17.696000  8.791510
183  2 -0.7939 12.536200 -0.055623 14.637000
184  2 -0.7555 12.870500  6.184180  2.680530
185  2 -0.7378 12.196500  6.068720  8.753890
186  2 -0.7923 12.476400  6.479720 14.826200
187  2 -0.9631 12.143000 11.713500  2.464990
188  2 -0.8320 11.542100 11.669300  7.809100
189  2 -0.6192 12.197900 12.339300 14.898900
190  2 -0.7571 18.327900  3.209630 17.989700
191  2 -0.8748  0.086464  2.943020  6.119180
192  2 -0.8485  0.755179  2.852120 11.618600
193  2 -0.6708  0.572868  9.382900 17.837900
194  2 -0.7790 18.161400  8.169300  5.342870
195  2 -0.7389 18.264800  8.630690 11.468500
196  2 -0.6249  0.580640 15.028700 17.544700
197  2 -0.6800 18.651600 15.192800  5.650930
198  2 -0.8853 -0.199041 15.076500 11.852400
199  2 -0.6793  7.062790  3.325460 17.363500
200  2 -0.8253  6.985520  2.946610  5.884960
201  2 -0.8689  6.353960  3.124080 12.213200
202  2 -0.7548  5.827700  8.629380 17.478300
203  2 -0.9314  6.852620  8.933400  5.832270
204  2 -0.7559  6.264990  8.259260 11.478500
205  2 -0.8306  6.496640 15.033900 18.222000
206  2 -0.6840  5.983400 15.705300  5.849230
207  2 -0.7104  5.318400 14.452100 11.128200
208  2 -0.8856 12.711300  2.759160 17.808600
209  2 -0.6812 12.904200  2.787630  6.085770
210  2 -0.7745 12.827700  3.107670 11.843000
211  2 -0.7479 11.795700  8.945720 17.661400
212  2 -0.7009 12.178400  8.188640  5.513410
213  2 -0.7251 12.026300  9.789490 11.982300
214  2 -0.9016 12.138000 14.958300 17.664400
215  2 -0.6983 12.150400 15.111100  5.201110
216  2 -0.6646 11.713300 15.276200 11.687600

