Generated by pymatgen.io.lammps.data.LammpsData

320  atoms

  2  atom types

0.000000 16.830672  xlo xhi
0.000000 23.432547  ylo yhi
0.000000 24.472453  zlo zhi

Masses

1  208.9804
2   78.9600

Atoms

1    1  0.8147  0.787678 11.184700 10.705900
2    1  0.8200  1.025520 11.301600 22.802300
3    1  0.8311  0.839339 22.952200 10.739100
4    1  0.8349  0.904988 22.948300 22.716000
5    1  0.8295  5.169740 11.224300 10.635600
6    1  0.8204  5.146310 11.060900 22.684000
7    1  0.8285  5.041220 22.971300 10.715400
8    1  0.8269  5.130610 22.877400 22.724700
9    1  0.8161  9.383660 11.183200 10.555000
10   1  0.8561  9.325230 11.250500 22.726300
11   1  0.8317  9.351010 22.867700 10.621800
12   1  0.8203  9.238800 22.924400 22.770900
13   1  0.8277 13.514100 11.314200 10.615000
14   1  0.8257 13.595700 11.061100 22.710300
15   1  0.8212 13.557000 22.927200 10.466000
16   1  0.8238 13.575000 22.785600 22.706300
17   1  0.8255  3.049310  0.280176  1.741440
18   1  0.8070  3.032210  0.235545 13.971500
19   1  0.8150  3.029430 12.020700  1.584810
20   1  0.8213  2.890660 11.974700 14.016200
21   1  0.8268  7.162940  0.217481  1.649660
22   1  0.8316  7.122240  0.197108 13.878900
23   1  0.8322  7.240640 11.986800  1.511810
24   1  0.8402  7.202170 12.056300 13.939100
25   1  0.8241 11.343600  0.150664  1.701260
26   1  0.8328 11.442800  0.262368 13.928400
27   1  0.8400 11.342400 12.052300  1.556810
28   1  0.8115 11.486100 12.009100 13.997800
29   1  0.8250 15.726000  0.245210  1.793630
30   1  0.8189 15.647100  0.314436 14.118000
31   1  0.8147 15.837100 12.005200  1.695720
32   1  0.8264 15.634900 12.057500 13.917900
33   1  0.8151  2.991540  5.420280  7.902960
34   1  0.8370  2.948580  5.355480 19.966100
35   1  0.8021  3.083230 17.067300  7.878100
36   1  0.8259  2.989230 16.876500 20.124700
37   1  0.8060  7.082320  5.412830  7.898900
38   1  0.8314  7.313400  5.374030 19.937100
39   1  0.7987  7.119370 17.226000  7.969910
40   1  0.8381  7.130390 16.974200 20.185300
41   1  0.8050 11.468400  5.430070  7.835080
42   1  0.8190 11.375100  5.491980 19.958300
43   1  0.8089 11.434100 17.026300  7.896800
44   1  0.8228 11.339000 17.025100 20.014300
45   1  0.8154 15.745400  5.445120  7.764300
46   1  0.8162 15.584900  5.402320 19.939500
47   1  0.8075 15.622300 17.243700  7.922260
48   1  0.8099 15.704800 17.004100 20.060600
49   1  0.8230  0.975367  6.259570  4.537120
50   1  0.8168  0.933598  6.183530 16.671300
51   1  0.8270  0.949087 17.829100  4.496780
52   1  0.8332  1.064570 17.864900 16.722000
53   1  0.8307  5.176570  6.136910  4.493660
54   1  0.8143  5.145770  6.239180 16.443700
55   1  0.8266  5.198540 17.987700  4.592390
56   1  0.8480  5.195490 17.784700 16.633400
57   1  0.8239  9.189090  6.188110  4.535680
58   1  0.8182  9.340270  6.262540 16.633100
59   1  0.8309  9.351990 17.784100  4.287550
60   1  0.8316  9.293710 17.822700 16.570000
61   1  0.8220 13.435100  6.108310  4.496050
62   1  0.8436 13.633600  6.145140 16.677500
63   1  0.8289 13.610400 17.767300  4.625950
64   1  0.8163 13.409600 17.977600 16.567400
65   1  0.8224  1.025030  1.775000  5.761580
66   1  0.8228  1.065340  1.790590 18.237900
67   1  0.8148  1.002910 13.363300  6.007170
68   1  0.8425  0.874517 13.464100 18.211000
69   1  0.8558  5.113750  1.928420  5.950070
70   1  0.8299  5.111830  1.629130 18.163200
71   1  0.8106  5.167010 13.590800  5.904390
72   1  0.8363  5.066740 13.560900 18.049000
73   1  0.8253  9.294810  1.680680  5.858530
74   1  0.8076  9.319220  1.787840 18.141300
75   1  0.8220  9.299630 13.486700  5.781390
76   1  0.8367  9.386070 13.485800 18.085200
77   1  0.7891 13.340300  1.594440  5.898150
78   1  0.8361 13.461700  1.815970 18.306900
79   1  0.8382 13.557600 13.461700  5.924520
80   1  0.8323 13.473300 13.415700 18.024700
81   1  0.8228  2.995920  9.727840  6.349230
82   1  0.8458  3.177570  9.828130 18.502700
83   1  0.8440  3.181410 21.340400  6.124190
84   1  0.8504  3.162760 21.467300 18.672600
85   1  0.8155  7.282070  9.822410  6.172440
86   1  0.8179  7.087410  9.858480 18.559100
87   1  0.8193  7.343200 21.337700  6.054720
88   1  0.8511  7.197370 21.355100 18.716100
89   1  0.8136 11.376100  9.729290  6.131740
90   1  0.8396 11.465200  9.856460 18.427100
91   1  0.8243 11.271300 21.251900  6.317720
92   1  0.8378 11.334300 21.488000 18.438600
93   1  0.8303 15.482200  9.733100  6.424160
94   1  0.8688 15.650900  9.675300 18.543300
95   1  0.8126 15.675100 21.236500  6.280760
96   1  0.8221 15.545000 21.540100 18.459600
97   1  0.8163  2.914110  7.689080 12.555600
98   1  0.8171  3.116920  7.696590  0.030940
99   1  0.8296  3.040530 19.609800 12.602400
100  1  0.8275  3.222060 19.159000  0.037504
101  1  0.8296  7.113850  7.758960 12.448700
102  1  0.8388  7.155890  7.639270  0.022947
103  1  0.8254  7.131100 19.526700 12.547600
104  1  0.8227  7.166190 19.144800  0.103499
105  1  0.8393 11.446100  7.930590 12.390500
106  1  0.8301 11.463200  7.441320  0.247294
107  1  0.8381 11.194400 19.402200 12.550700
108  1  0.8167 11.484800 19.356800  0.082848
109  1  0.8354 15.786400  7.585220 12.623200
110  1  0.8287 15.691400  7.610330  0.317227
111  1  0.8544 15.617500 19.385800 12.546100
112  1  0.8408 15.555800 19.278500  0.139578
113  1  0.8256  0.901768  3.992490 24.301300
114  1  0.8168  0.969404  3.901620 12.082200
115  1  0.8249  0.983160 15.418800 24.347700
116  1  0.8427  0.928992 15.818600 12.082600
117  1  0.8280  5.041300  3.902300 24.174900
118  1  0.8294  5.216460  3.602330 12.133700
119  1  0.8189  5.072370 15.424800 24.096500
120  1  0.8396  5.236320 15.675200 11.930800
121  1  0.8278  9.255410  3.910460 24.255800
122  1  0.8170  9.415560  3.971780 12.131400
123  1  0.8342  9.365930 15.393400 24.197700
124  1  0.8339  9.231080 15.740700 12.076600
125  1  0.8325 13.666900  3.827160 24.280300
126  1  0.8266 13.555300  4.056410 11.978000
127  1  0.8219 13.432300 15.566000 24.245300
128  1  0.8402 13.602900 15.660900 11.950700
129  2 -0.4715  0.907545  3.315480  8.548270
130  2 -0.5235  0.901568  3.456190 20.642500
131  2 -0.4961  0.833748 15.180900  8.621250
132  2 -0.5180  0.863800 15.080800 20.832200
133  2 -0.4918  5.058770  3.412000  8.535800
134  2 -0.4847  5.027550  3.497630 20.762100
135  2 -0.5055  5.144720 15.110700  8.744140
136  2 -0.5408  5.118150 15.116100 20.706800
137  2 -0.4887  9.224770  3.474130  8.549830
138  2 -0.5238  9.272000  3.539540 20.659200
139  2 -0.4856  9.075580 15.308200  8.683750
140  2 -0.5034  9.362980 15.125200 20.693100
141  2 -0.5088 13.610200  3.544660  8.555740
142  2 -0.5250 13.400700  3.618100 20.724000
143  2 -0.5184 13.611200 15.287800  8.616240
144  2 -0.4978 13.610400 15.201800 20.754900
145  2 -0.4962  3.153320  8.051520  3.797380
146  2 -0.5303  2.879240  8.130560 15.915300
147  2 -0.5195  3.153810 19.656500  3.652050
148  2 -0.4902  3.156430 19.720900 16.058100
149  2 -0.5142  7.250390  7.971690  3.684090
150  2 -0.5068  7.265710  8.143040 15.854100
151  2 -0.5429  7.306340 19.708400  3.654590
152  2 -0.4927  7.180920 19.738300 16.089300
153  2 -0.5023 11.404800  8.107060  3.615810
154  2 -0.4891 11.581200  8.097010 15.868900
155  2 -0.5103 11.512200 19.545700  3.784020
156  2 -0.5289 11.386600 19.771600 15.805200
157  2 -0.4946 15.598600  8.020440  3.752760
158  2 -0.5202 15.624300  7.992640 15.943400
159  2 -0.5166 15.668300 19.632600  3.724420
160  2 -0.4942 15.682300 19.838700 15.948700
161  2 -0.4878  3.040820  9.265510  9.920090
162  2 -0.5214  3.077430  9.325400 21.865800
163  2 -0.4772  2.938510 21.131800  9.894220
164  2 -0.4987  3.040260 20.949600 21.984100
165  2 -0.5036  7.283250  9.283080  9.875280
166  2 -0.5358  7.260670  9.338630 22.039500
167  2 -0.4849  7.111840 21.136100  9.878140
168  2 -0.5319  7.140630 20.964200 22.019800
169  2 -0.5260 11.592800  9.427060  9.825700
170  2 -0.4697 11.386800  9.240220 21.997500
171  2 -0.5052 11.362900 21.001400  9.959650
172  2 -0.5117 11.362200 20.951800 22.007100
173  2 -0.4984 15.592200  9.404810  9.936200
174  2 -0.4909 15.693800  9.363590 21.961300
175  2 -0.4962 15.665200 21.061900  9.970170
176  2 -0.5201 15.761300 20.987800 22.092400
177  2 -0.5183  0.837234  2.238530  2.439240
178  2 -0.5107  1.071300  2.147060 14.725600
179  2 -0.5414  0.913538 13.842600  2.385590
180  2 -0.5074  0.963019 13.917700 14.769600
181  2 -0.4897  5.001250  2.253420  2.463090
182  2 -0.5376  5.148740  2.047250 14.681400
183  2 -0.4931  5.140560 13.899900  2.309860
184  2 -0.4862  5.088910 13.916100 14.640600
185  2 -0.4917  9.220370  2.109950  2.439040
186  2 -0.5082  9.418170  2.115180 14.580700
187  2 -0.5298  9.303290 13.943000  2.236920
188  2 -0.5143  9.285360 13.863900 14.688500
189  2 -0.4942 13.510700  2.108130  2.324700
190  2 -0.4717 13.490200  2.142190 14.703000
191  2 -0.4773 13.537500 13.926900  2.355350
192  2 -0.5224 13.504200 13.851000 14.685200
193  2 -0.5361  0.897311 10.967500  4.698320
194  2 -0.5221  0.902866 10.849700 17.040100
195  2 -0.5399  1.048590 22.609500  4.576260
196  2 -0.5109  1.019250 22.557100 16.889800
197  2 -0.4998  5.085000 10.979300  4.535500
198  2 -0.5651  5.132580 11.026900 16.817300
199  2 -0.5254  5.243250 22.701000  4.501430
200  2 -0.5282  5.262400 22.605900 17.010500
201  2 -0.5582  9.239410 11.069000  4.507190
202  2 -0.5372  9.356670 10.852200 16.859800
203  2 -0.5559  9.441820 22.643000  4.529340
204  2 -0.5134  9.154110 22.531100 16.917000
205  2 -0.5158 13.575700 10.918000  4.556900
206  2 -0.5416 13.645100 10.883700 16.861000
207  2 -0.5175 13.420200 22.510700  4.553200
208  2 -0.5539 13.478700 22.783000 16.937100
209  2 -0.4753  3.144120  0.563912  7.439790
210  2 -0.5647  3.089400  0.436334 19.905000
211  2 -0.5281  3.136930 12.310500  7.676420
212  2 -0.5400  3.046060 12.237700 19.730800
213  2 -0.4855  7.116560  0.545958  7.462090
214  2 -0.5310  7.122380  0.561391 19.924500
215  2 -0.5162  7.319170 12.343000  7.585220
216  2 -0.5182  7.218660 12.307100 19.829400
217  2 -0.5412 11.311600  0.497303  7.656580
218  2 -0.5411 11.315600  0.557254 19.827600
219  2 -0.5310 11.338300 12.369800  7.495550
220  2 -0.5578 11.493700 12.321900 19.687700
221  2 -0.4883 15.769600  0.446008  7.561250
222  2 -0.5329 15.665500  0.640467 19.856200
223  2 -0.5308 15.510800 12.235900  7.629370
224  2 -0.5129 15.609600 12.257300 19.686800
225  2 -0.5318  3.007030  5.138880  1.375350
226  2 -0.5264  3.131480  5.043510 13.745900
227  2 -0.5074  3.048020 16.668000  1.442470
228  2 -0.5138  3.105210 16.877000 13.658100
229  2 -0.5150  7.176450  5.139790  1.421330
230  2 -0.5252  7.193730  5.139370 13.732800
231  2 -0.5060  7.298240 16.735100  1.391770
232  2 -0.5523  7.110810 16.880200 13.770600
233  2 -0.5204 11.361300  4.935300  1.477510
234  2 -0.5062 11.546500  5.236260 13.661200
235  2 -0.5179 11.529100 16.750400  1.414780
236  2 -0.5336 11.488800 16.772100 13.672600
237  2 -0.5324 15.626200  5.079830  1.474780
238  2 -0.5291 15.647900  5.040090 13.858500
239  2 -0.4937 15.604900 16.790700  1.440330
240  2 -0.5388 15.822600 16.864800 13.712500
241  2 -0.5541  0.916207  6.494260 10.886700
242  2 -0.5353  0.809082  6.463210 23.000200
243  2 -0.5266  0.859049 18.229700 10.920700
244  2 -0.5204  0.928219 17.991800 23.044900
245  2 -0.4999  5.081920  6.298220 10.761300
246  2 -0.5436  5.103130  6.365730 22.871200
247  2 -0.5305  5.054280 18.233200 10.786600
248  2 -0.5738  5.220850 18.050600 22.822500
249  2 -0.5223  9.474970  6.556830 10.880200
250  2 -0.5334  9.194530  6.369610 22.984800
251  2 -0.5649  9.169080 18.287700 10.990700
252  2 -0.5315  9.332810 17.975800 22.921100
253  2 -0.5071 13.675800  6.516980 10.749000
254  2 -0.5408 13.589400  6.489060 23.145800
255  2 -0.5214 13.620800 18.220200 10.873200
256  2 -0.5472 13.495400 18.133900 22.911500
257  2 -0.6468  1.035400 10.015200  0.914794
258  2 -0.6492  0.811528  9.958620 13.243300
259  2 -0.5711  0.995660 21.695900  0.899364
260  2 -0.6464  0.899815 21.693400 13.308600
261  2 -0.6388  5.209920 10.010900  0.842367
262  2 -0.6204  5.088830 10.071000 13.278900
263  2 -0.6231  5.077300 21.850600  0.897424
264  2 -0.6726  5.059570 21.676800 13.411100
265  2 -0.6056  9.365970 10.070400  0.818023
266  2 -0.6235  9.196490  9.955040 13.149900
267  2 -0.6110  9.294170 21.668700  0.938587
268  2 -0.6447  9.283240 21.692500 13.232800
269  2 -0.5821 13.494300 10.031600  0.934215
270  2 -0.6165 13.551100 10.090900 13.285100
271  2 -0.6124 13.668600 21.768300  0.900301
272  2 -0.5945 13.536700 21.723700 13.276900
273  2 -0.6298  3.040510  1.565840 11.296200
274  2 -0.6053  2.952620  1.456510 23.541900
275  2 -0.5860  3.068380 13.159700 11.396000
276  2 -0.6664  3.103540 13.151000 23.416100
277  2 -0.6479  7.158180  1.297430 11.342400
278  2 -0.6239  7.214470  1.405700 23.532300
279  2 -0.6038  7.231700 13.198400 11.394200
280  2 -0.6338  7.341470 13.215700 23.442000
281  2 -0.6028 11.479800  1.516060 11.346700
282  2 -0.5793 11.455200  1.320210 23.448700
283  2 -0.6027 11.408100 13.365800 11.403100
284  2 -0.6515 11.346400 12.995800 23.497000
285  2 -0.6091 15.644800  1.468670 11.396600
286  2 -0.5965 15.605600  1.405660 23.532300
287  2 -0.6316 15.545300 13.210400 11.347400
288  2 -0.6082 15.729400 13.187500 23.447200
289  2 -0.6399  3.132570  4.164530  5.324090
290  2 -0.6032  2.986010  4.141030 17.395100
291  2 -0.6390  3.107540 16.059600  5.260250
292  2 -0.6383  3.023480 15.872900 17.466600
293  2 -0.6262  7.214220  4.155040  5.222200
294  2 -0.6064  7.270330  4.310320 17.328700
295  2 -0.6308  7.168180 16.006600  5.201640
296  2 -0.6119  7.280910 15.823600 17.445600
297  2 -0.6144 11.357800  4.201830  5.138470
298  2 -0.6004 11.478300  4.258480 17.258400
299  2 -0.6232 11.573000 15.828000  5.246400
300  2 -0.6229 11.286800 15.889800 17.374000
301  2 -0.6035 15.724500  4.338370  5.149710
302  2 -0.6149 15.531900  4.117650 17.432900
303  2 -0.6093 15.572500 15.822900  5.261790
304  2 -0.5876 15.671500 15.827100 17.370000
305  2 -0.6450  0.972153  7.395810  7.108090
306  2 -0.6062  0.902197  7.384820 19.232000
307  2 -0.6355  0.930056 19.050800  7.073250
308  2 -0.5931  0.993855 18.996100 19.284300
309  2 -0.6242  5.125230  7.385640  7.113210
310  2 -0.6054  5.118840  7.237070 19.276900
311  2 -0.6351  5.064060 19.324700  7.159950
312  2 -0.5959  5.066420 18.978700 19.259600
313  2 -0.6288  9.363600  7.472150  7.031270
314  2 -0.6101  9.413310  7.462790 19.297500
315  2 -0.6340  9.379170 19.052800  7.050440
316  2 -0.5901  9.261870 19.034300 19.217500
317  2 -0.6273 13.533900  7.379140  7.025550
318  2 -0.6277 13.523800  7.425500 19.253600
319  2 -0.6257 13.484200 19.247700  7.232410
320  2 -0.6065 13.348700 19.308600 19.066500

