Generated by pymatgen.io.lammps.data.LammpsData

48  atoms

 2  atom types

0.000000 11.962371  xlo xhi
0.000000 11.962371  ylo yhi
0.000000 6.997800  zlo zhi

Masses

1  106.42
2   78.96

Atoms

1   1  0.190998  1.372990 0.000000
2   1 11.373600 10.191600 0.000000
3   1 10.191600  0.190998 3.498900
4   1  1.372990 11.373600 3.498900
5   1  5.392420  7.354170 0.000000
6   1  6.172180  4.210430 0.000000
7   1  7.354170  6.172180 3.498900
8   1  4.210430  5.392420 3.498900
9   1  2.707080  3.998850 0.000000
10  1  8.857520  7.565750 0.000000
11  1  7.565750  2.707080 3.498900
12  1  3.998850  8.857520 3.498900
13  1  2.876340  9.980040 0.000000
14  1  8.688260  1.584560 0.000000
15  1  9.980040  8.688260 3.498900
16  1  1.584560  2.876340 3.498900
17  1  1.182950  7.164140 1.749450
18  1 10.381600  4.400460 5.248350
19  1 10.381600  4.400460 1.749450
20  1  1.182950  7.164140 5.248350
21  1  4.400460  1.182950 5.248350
22  1  7.164140 10.381600 1.749450
23  1  7.164140 10.381600 5.248350
24  1  4.400460  1.182950 1.749450
25  2  1.921840  1.075280 1.884710
26  2  9.642760 10.489300 5.113090
27  2  9.642760 10.489300 1.884710
28  2  1.921840  1.075280 5.113090
29  2 10.489300  1.921840 5.383610
30  2  1.075280  9.642760 1.614190
31  2  1.075280  9.642760 5.383610
32  2 10.489300  1.921840 1.614190
33  2  3.661580  7.056470 5.113090
34  2  7.903020  4.508130 1.884710
35  2  7.903020  4.508130 5.113090
36  2  3.661580  7.056470 1.884710
37  2  7.056470  7.903020 1.614190
38  2  4.508130  3.661580 5.383610
39  2  4.508130  3.661580 1.614190
40  2  7.056470  7.903020 5.383610
41  2  6.879750  0.898560 1.749450
42  2  4.684850 10.666000 5.248350
43  2  4.684850 10.666000 1.749450
44  2  6.879750  0.898560 5.248350
45  2 10.666000  6.879750 5.248350
46  2  0.898560  4.684850 1.749450
47  2  0.898560  4.684850 5.248350
48  2 10.666000  6.879750 1.749450

