Generated by pymatgen.io.lammps.data.LammpsData

216  atoms

  2  atom types

0.000000 18.226100  xlo xhi
0.000000 18.100281  ylo yhi
0.000000 18.233787  zlo zhi

Masses

1  208.9804
2   78.9600

Atoms

1    1  0.7870  0.015276 18.042500 18.040500
2    1  0.8367 -0.039628 18.268700  6.079360
3    1  0.7663 -0.036663 18.062400 12.097100
4    1  0.8200 -0.041316  6.070810 18.118300
5    1  0.7769 -0.146902  6.039510  5.959400
6    1  0.7936 -0.009361  6.200730 12.098800
7    1  0.7924 -0.050865 12.073200 -0.082021
8    1  0.7865  0.001396 12.308400  5.980180
9    1  0.8135  0.024107 12.248300 12.114600
10   1  0.7919  6.144100 18.121200 18.226300
11   1  0.7778  5.923260 18.258900  5.945730
12   1  0.8057  6.032170 18.190100 12.212700
13   1  0.7793  6.101680  6.237200 -0.120297
14   1  0.8198  5.969620  6.172270  6.010730
15   1  0.7696  6.039810  6.168460 11.924200
16   1  0.7916  6.118090 12.178600  0.010382
17   1  0.7713  6.160180 12.190800  6.159270
18   1  0.7871  6.096000 12.198500 12.177900
19   1  0.8057 12.184000 18.134200 -0.015156
20   1  0.8040 12.315700 18.081600  6.235990
21   1  0.8072 12.266600 18.111800 12.141600
22   1  0.7717 12.189500  6.099090 -0.036951
23   1  0.7828 12.109100  5.938960  6.026130
24   1  0.7813 12.125900  6.127800 12.073400
25   1  0.7784 12.120200 12.054400 -0.133928
26   1  0.8008 12.244600 12.078800  6.232760
27   1  0.7970 12.180400 12.155400 12.067600
28   1  0.8196 -0.061911  3.080010  2.987140
29   1  0.7949  0.142371  3.140290  9.167310
30   1  0.8062  0.007032  3.044110 15.283700
31   1  0.8033 -0.065232  9.106430  3.097130
32   1  0.7841 -0.084740  9.270590  9.261430
33   1  0.7881  0.051127  9.160100 15.193800
34   1  0.7793  0.045175 15.368200  3.044640
35   1  0.7628 -0.207569 15.290700  9.270260
36   1  0.8194 -0.054531 15.202200 15.254200
37   1  0.7897  6.000330  3.207730  3.042600
38   1  0.7796  6.247040  2.960220  9.119850
39   1  0.7923  6.040310  2.960280 15.291200
40   1  0.8034  6.028200  9.131100  3.114570
41   1  0.7742  6.064620  8.911280  8.914750
42   1  0.7964  5.966070  9.098260 15.123200
43   1  0.8134  6.070900 15.082700  3.174600
44   1  0.7855  6.041660 15.121600  9.177220
45   1  0.7639  6.062540 15.166600 15.244500
46   1  0.7762 11.971500  3.093690  3.070280
47   1  0.7731 12.403000  2.959420  9.146780
48   1  0.7744 12.200700  3.081790 15.129100
49   1  0.8001 12.298900  9.270290  3.082250
50   1  0.7885 12.138000  8.886430  9.085390
51   1  0.7970 12.095300  9.141380 15.115500
52   1  0.7792 12.273000 15.209700  2.948910
53   1  0.8143 12.051500 15.098200  9.291350
54   1  0.8165 12.196600 15.049100 15.157500
55   1  0.7774  2.972260 18.103300  2.995590
56   1  0.7992  2.776840 18.134500  9.169150
57   1  0.7850  2.909610 18.103300 15.195500
58   1  0.8102  2.894740  6.136640  3.021580
59   1  0.7905  2.996180  5.985790  9.033860
60   1  0.7753  3.077080  6.085540 15.338500
61   1  0.8142  3.092070 12.246900  3.112920
62   1  0.7727  2.871440 12.129100  9.187470
63   1  0.7769  2.942350 12.003200 15.161600
64   1  0.7703  9.247800 18.168800  3.103810
65   1  0.7939  9.087740 18.247100  8.962350
66   1  0.8021  9.257540  0.092022 15.290400
67   1  0.7984  9.022450  6.295690  3.051410
68   1  0.7945  8.986420  5.886330  9.070360
69   1  0.8001  9.167920  6.162340 15.255400
70   1  0.8037  9.370020 12.112200  2.933330
71   1  0.7761  9.101270 12.076100  9.284320
72   1  0.7927  9.170540 12.343900 15.084700
73   1  0.8087 15.182400 18.108200  3.011140
74   1  0.7830 15.090300 18.242500  9.197210
75   1  0.8114 15.177900 18.188300 15.170600
76   1  0.8044 15.175600  5.947600  2.964470
77   1  0.7862 15.081100  6.259380  8.898630
78   1  0.7661 15.153300  6.107860 15.121600
79   1  0.7960 15.177300 12.202100  2.992410
80   1  0.7980 15.136400 12.342900  9.146980
81   1  0.8007 15.152100 12.065800 15.171600
82   1  0.7946  2.976750  3.063340  0.146678
83   1  0.7835  2.945730  3.025130  6.095180
84   1  0.7802  3.292190  2.965840 12.185200
85   1  0.7709  2.978500  9.030420  0.142345
86   1  0.7935  2.910210  9.084190  6.043720
87   1  0.7745  3.059520  9.194630 12.273100
88   1  0.8030  3.045550 15.028100  0.075662
89   1  0.7995  3.125700 15.161300  5.941990
90   1  0.7792  2.797180 15.113100 12.071000
91   1  0.7712  9.187710  2.916220  0.046541
92   1  0.7973  9.356280  3.014070  6.131930
93   1  0.7984  9.135900  2.958400 12.293300
94   1  0.7954  9.121100  9.153050  0.068038
95   1  0.7837  9.245220  9.194940  5.900060
96   1  0.7928  9.230820  9.166320 12.251300
97   1  0.8052  9.182350 15.206500  0.111416
98   1  0.7958  9.280800 15.100400  6.173150
99   1  0.8070  9.148530 15.269700 12.081400
100  1  0.8043 15.164600  3.046200 -0.044690
101  1  0.8119 15.332900  2.995770  6.062340
102  1  0.7752 15.362500  3.104890 12.103000
103  1  0.7871 15.157200  9.137660  0.106360
104  1  0.8040 15.246000  9.119190  6.266440
105  1  0.8007 15.192600  9.211840 12.102200
106  1  0.7975 15.423800 15.032000  0.063991
107  1  0.7985 15.280600 15.112300  6.172580
108  1  0.7918 15.100200 15.232100 12.144200
109  2 -0.7901  3.034490 -0.055832 -0.080194
110  2 -0.7955  2.979900 18.091200  5.993280
111  2 -0.8084  3.014950 18.147800 12.115300
112  2 -0.8103  2.938340  5.982290  0.057169
113  2 -0.7931  3.096360  6.098050  5.961570
114  2 -0.7623  3.066880  6.155880 12.064100
115  2 -0.7761  2.951890 12.197100  0.163847
116  2 -0.7910  2.954590 12.231900  5.976180
117  2 -0.8151  2.945000 12.160400 12.150900
118  2 -0.8217  9.244860 -0.016498  0.030817
119  2 -0.7971  9.290360 18.298900  6.213960
120  2 -0.7703  9.089100 18.180200 12.143700
121  2 -0.7776  9.044340  6.103420 -0.001477
122  2 -0.7743  9.110580  6.008960  5.988890
123  2 -0.7618  9.107850  6.115160 12.124300
124  2 -0.7936  9.189070 12.147900  0.028469
125  2 -0.7753  9.140790 12.139000  6.139190
126  2 -0.8163  9.190360 12.118200 12.175800
127  2 -0.7749 15.136600  0.022396 -0.092605
128  2 -0.7895 15.356100  0.044518  6.103640
129  2 -0.8330 15.159100 18.176900 12.147700
130  2 -0.7911 15.307600  6.077910  0.065768
131  2 -0.8042 15.182000  6.067630  5.946410
132  2 -0.7684 15.229400  6.295900 12.017800
133  2 -0.8166 15.175900 12.091400  0.069388
134  2 -0.7926 15.241100 12.247400  6.067700
135  2 -0.7918 15.151800 12.253200 12.153600
136  2 -0.7942  2.899500  3.112160  3.033790
137  2 -0.7976  3.108160  3.056840  9.158280
138  2 -0.7833  3.007750  2.901590 15.268300
139  2 -0.7965  3.052760  9.089410  3.151790
140  2 -0.7698  2.874250  8.994330  9.023250
141  2 -0.8290  3.070640  9.110830 15.267800
142  2 -0.8295  3.201330 15.120700  3.038430
143  2 -0.7695  2.858970 15.143800  9.129600
144  2 -0.7771  2.840290 15.036200 15.230100
145  2 -0.7892  9.103230  3.088490  3.057470
146  2 -0.8129  9.224240  3.029360  8.997660
147  2 -0.7848  9.084730  3.043130 15.127900
148  2 -0.8168  9.265420  9.171390  3.018060
149  2 -0.7575  9.058470  8.953540  9.095680
150  2 -0.7677  9.105150  9.160780 15.276900
151  2 -0.7770  9.130420 15.172300  3.077370
152  2 -0.8006  9.208840 15.117200  9.138610
153  2 -0.7832  9.202460 15.194300 15.238500
154  2 -0.7707 15.146100  3.018820  3.021960
155  2 -0.7951 15.371800  3.191540  9.087730
156  2 -0.8015 15.289200  3.149830 15.235300
157  2 -0.7754 15.272800  9.142920  3.114720
158  2 -0.8177 15.113500  9.197260  9.100520
159  2 -0.7782 15.158700  9.120360 15.137500
160  2 -0.8084 15.288800 15.110600  2.982370
161  2 -0.8300 14.974900 15.172300  9.173380
162  2 -0.7705 15.207700 15.187900 15.215500
163  2 -0.8021 18.109100 18.241400  3.068670
164  2 -0.8236 18.137100  0.247755  9.065560
165  2 -0.8261  0.041443 18.118200 15.245400
166  2 -0.7939 18.208400  6.105840  2.920880
167  2 -0.7661 18.126500  6.188450  9.036750
168  2 -0.7784  0.134043  6.060240 15.172500
169  2 -0.7585 18.317500 12.195900  2.968650
170  2 -0.8036 18.092900 12.258700  9.163640
171  2 -0.7900 -0.081221 12.111200 15.119100
172  2 -0.7671  6.000050  0.029952  3.020970
173  2 -0.7547  5.853540 -0.019139  9.163070
174  2 -0.7896  6.301090  0.079326 15.238900
175  2 -0.7909  6.038730  6.281410  3.067300
176  2 -0.8190  6.020630  6.058220  8.967360
177  2 -0.7783  6.090090  5.976240 15.240600
178  2 -0.7730  6.164840 12.132700  3.034860
179  2 -0.7821  5.968100 12.125700  9.177530
180  2 -0.7773  6.131910 12.132900 15.130600
181  2 -0.7974 12.247000 18.118800  3.078650
182  2 -0.8153 12.178000 18.108000  9.068900
183  2 -0.7828 12.315900 18.090800 15.200900
184  2 -0.7716 12.114000  6.184530  3.045940
185  2 -0.8107 12.099300  6.091950  8.963510
186  2 -0.7990 12.071000  6.036130 15.132200
187  2 -0.8067 12.154200 12.145100  3.008380
188  2 -0.8055 12.126800 12.083900  9.247910
189  2 -0.8202 12.220800 12.119300 15.080900
190  2 -0.7918 18.200000  3.094100  0.000361
191  2 -0.8206 18.223900  2.988240  5.906080
192  2 -0.7615 18.242900  3.152850 12.128300
193  2 -0.7946 18.139100  9.079420 -0.018654
194  2 -0.7790 -0.091553  9.075540  6.030230
195  2 -0.7957 18.242400  9.258300 12.227800
196  2 -0.8221 18.252900 15.155200  0.036523
197  2 -0.7785 18.215600 15.262700  6.118040
198  2 -0.8358 18.134300 15.143100 12.267100
199  2 -0.7699  6.120280  3.043210  0.138106
200  2 -0.7655  6.019010  3.113610  6.076380
201  2 -0.8002  6.171150  3.025520 12.134600
202  2 -0.7881  5.981900  9.208030 -0.038131
203  2 -0.7935  6.132170  9.128450  5.982270
204  2 -0.7767  6.094870  9.210690 12.255600
205  2 -0.7806  6.180990 15.160100  0.061201
206  2 -0.7902  6.141080 15.229600  6.075960
207  2 -0.7801  6.155240 15.284300 12.123100
208  2 -0.8034 12.261800  3.097530  0.006831
209  2 -0.8000 12.360400  2.942610  6.081880
210  2 -0.7942 12.238200  2.955510 12.189300
211  2 -0.7990 12.133000  9.130090 -0.012120
212  2 -0.7940 12.247400  9.242310  6.093010
213  2 -0.8050 12.137800  8.992730 12.270800
214  2 -0.7761 12.210900 15.238000  0.007875
215  2 -0.7754 12.167700 15.056100  6.235850
216  2 -0.8250 12.020300 15.266700 12.263300

