Generated by pymatgen.io.lammps.data.LammpsData

320  atoms

  2  atom types

0.000000 24.637781  xlo xhi
0.000000 17.058433  ylo yhi
0.000000 27.370788  zlo zhi

Masses

1  208.9804
2   78.9600

Atoms

1    1  0.7064 22.279700  1.112910  1.038530
2    1  0.7378 -1.721770  1.678650 14.299400
3    1  0.7401 -2.232590 10.139000  0.905019
4    1  0.7079 -1.243780 10.244300 14.734400
5    1  0.6922  9.928100  1.410850  0.800970
6    1  0.8218 10.376400  1.576470 14.453700
7    1  0.7480  9.643060  9.892090  0.826649
8    1  0.6600 10.021200 10.116500 14.346200
9    1  0.7316  3.662790  5.877360  9.864410
10   1  0.7694  3.391270  5.866810 23.703500
11   1  0.7810  3.827260 14.616400  9.823350
12   1  0.6833  3.743990 14.383900 24.053800
13   1  0.8063 16.273800  6.046870 10.456700
14   1  0.7430 16.284300  5.567280 24.363300
15   1  0.7495 16.061300 14.480900 10.228600
16   1  0.7847 16.205600 14.171700 23.975600
17   1  0.6927  3.390920  5.868170  5.708980
18   1  0.7789  3.473030  5.983880 19.434400
19   1  0.7174  3.682920 14.050900  5.653950
20   1  0.6735  3.597000 14.839300 19.759400
21   1  0.7123 15.875300  5.737100  5.762010
22   1  0.7761 16.093800  5.708490 19.981000
23   1  0.7222 16.259700 14.113300  6.190990
24   1  0.6531 15.724600 13.929400 19.814300
25   1  0.7473 -2.160830  1.427980 10.126100
26   1  0.7585 22.235400 18.521800 23.159000
27   1  0.7040 -2.542170  9.959060 10.178300
28   1  0.8519 21.845100  9.849180 24.034800
29   1  0.8212  9.965540  1.958590 10.500800
30   1  0.7676  9.579540  1.951600 23.750700
31   1  0.7533  9.724870  9.911410 10.329500
32   1  0.7506  9.669320 10.060800 24.100600
33   1  0.7087 -2.247800  5.835500  0.618807
34   1  0.6849 -1.893690  5.876810 14.754600
35   1  0.6221 22.380100 14.104600  0.227586
36   1  0.7240 -1.732980 14.287400 14.419200
37   1  0.7407  9.916810  5.753790  0.768256
38   1  0.7677 10.038400  6.018350 14.694400
39   1  0.7288 10.180500 13.992800  0.951078
40   1  0.6756 10.230600 14.526500 14.303100
41   1  0.7707 -2.263040  5.686630 10.378400
42   1  0.7478 -2.241010  5.760060 23.565200
43   1  0.7546 -2.136640 14.283800 10.323800
44   1  0.7295 -2.420260 14.117200 23.971700
45   1  0.7612 10.070900  5.825000 10.490600
46   1  0.7358  9.889390  6.248530 23.568400
47   1  0.7690  9.670870 14.478700  9.688850
48   1  0.7892  9.695440 14.224300 23.796200
49   1  0.7264  4.452620  1.551660  5.601790
50   1  0.7508  3.691720  1.584340 19.790800
51   1  0.6792  3.830500 10.011400  6.219880
52   1  0.7488  3.415090 10.508400 19.368000
53   1  0.6877 16.304900  1.956110  6.485190
54   1  0.7193 15.904800  1.601350 19.930000
55   1  0.6852 16.375500 10.102800  5.895810
56   1  0.6800 15.833700  9.755270 20.000200
57   1  0.6914  3.897320  1.585860  9.941290
58   1  0.7677  3.795610  1.634570 23.954200
59   1  0.8056  4.046110  9.821520 10.052500
60   1  0.7290  3.508200 10.363200 23.807700
61   1  0.7263 16.421600  1.590090 10.437300
62   1  0.7871 15.950600 18.378100 24.327000
63   1  0.8171 15.718600 10.238900 10.196200
64   1  0.7684 15.977200 10.069500 24.072600
65   1  0.7661  0.544073  7.765460 25.983600
66   1  0.8377  0.914052  8.105210 11.951500
67   1  0.8032  0.589164 16.737300 26.396600
68   1  0.8201  0.886077 16.569700 11.869700
69   1  0.7671 12.799400  8.029330 26.149000
70   1  0.8790 13.066400  7.789850 12.173200
71   1  0.7998 12.926400 16.246100 26.232500
72   1  0.7761 13.185600 16.510100 12.371600
73   1  0.7829  6.603200  8.110360 25.504400
74   1  0.8081  6.707750  7.986700 12.507300
75   1  0.8138  7.021830 16.477700 26.352500
76   1  0.7794  7.186760 16.293100 12.384400
77   1  0.8478 19.091400  7.774750 26.125500
78   1  0.7410 19.369300  8.256140 12.804200
79   1  0.7767 19.366900 16.343200 25.950200
80   1  0.7511 19.617800 16.634300 12.460800
81   1  0.8098  0.459838  3.978610 26.273900
82   1  0.7508  0.862069  3.929470 11.712600
83   1  0.7816  0.467826 12.039600 25.975700
84   1  0.8204  0.899236 12.136100 12.222900
85   1  0.7050 13.564500  3.937880 26.482100
86   1  0.8376 13.203400  3.883060 12.121800
87   1  0.7563 12.585400 11.933100 26.287400
88   1  0.7740 12.752800 12.246800 12.269600
89   1  0.7889  6.648600  3.548880 25.751800
90   1  0.7441  7.085800  3.611710 13.075400
91   1  0.7475  6.950970 12.385700 26.032000
92   1  0.7362  6.969640 12.526900 12.608900
93   1  0.8060 19.781500  3.234690 26.135500
94   1  0.7966 19.765300  3.754070 12.883000
95   1  0.8029 19.200400 12.262100 25.849500
96   1  0.7712 19.374400 12.236800 12.766600
97   1  0.7745  0.866157  8.223560  7.960660
98   1  0.8705  0.679991  8.018140 21.899700
99   1  0.7958  0.847891 16.248100  7.543550
100  1  0.7844  0.745161 16.715200 22.086300
101  1  0.8286 13.317900  8.147960  8.079390
102  1  0.8188 13.069600  7.573020 22.257700
103  1  0.7643 13.022500 16.583800  7.687870
104  1  0.8082 13.006700 16.639400 22.141500
105  1  0.8137  6.907840  8.083130  8.006470
106  1  0.7559  6.413400  8.202540 21.297200
107  1  0.7658  6.786180 16.371900  8.267610
108  1  0.7283  6.671410 16.453200 21.274000
109  1  0.7725 19.463300  7.908190  8.229900
110  1  0.8014 19.058400  7.700210 21.676900
111  1  0.7652 19.280900 16.649400  8.549750
112  1  0.7757 18.742800 16.388300 21.779400
113  1  0.7274  0.502607  4.232300  7.586490
114  1  0.8232  0.770069  3.494750 22.034600
115  1  0.8487  0.859072 12.301600  8.152890
116  1  0.7989  0.720224 12.393400 21.901100
117  1  0.8063 13.160500  3.811810  8.117200
118  1  0.7927 13.123600  3.744180 22.029400
119  1  0.7671 12.896600 12.069000  7.657300
120  1  0.8111 12.740300 12.216900 22.109000
121  1  0.7703  6.633990  3.608030  8.194800
122  1  0.7339  6.746970  3.740330 21.511100
123  1  0.7640  6.850220 12.154300  8.451250
124  1  0.7847  6.743160 12.204400 22.001100
125  1  0.7657 19.163800  3.796410  8.345610
126  1  0.7847 19.159700  3.710660 22.114500
127  1  0.8217 18.841100 12.138400  8.565260
128  1  0.7488 18.638800 11.719800 21.903000
129  2 -0.7118  7.054590  6.153330 10.424700
130  2 -0.7664  6.842870  5.813110 23.369600
131  2 -0.8620  6.951840 14.380100 10.286900
132  2 -0.8038  6.952310 14.382200 23.978000
133  2 -0.7484 19.231500  5.989350 10.371900
134  2 -0.7742 19.252800  5.777280 24.132400
135  2 -0.7479 19.456200 14.385500 10.486000
136  2 -0.8119 19.110400 14.238300 23.924100
137  2 -0.8413  0.788514  6.129810  9.964030
138  2 -0.8562  0.596415  5.865050 23.867500
139  2 -0.7850  0.901538 14.208100 10.143000
140  2 -0.7784  0.722922 14.178500 24.165700
141  2 -0.8295 13.299900  6.205040 10.369600
142  2 -0.8384 12.587700  6.083310 24.340500
143  2 -0.7096 12.631600 14.087200  9.612070
144  2 -0.7469 12.809200 14.459900 24.037900
145  2 -0.0252 19.627900  3.608610  3.938430
146  2 -0.0695 -0.112141  3.832140 17.626600
147  2 -0.0196 20.274100 12.408000  3.992830
148  2 -0.1318 -0.168817 12.527900 17.329800
149  2 -0.0500  8.249110  3.641660  3.812170
150  2 -0.0911 11.541400  3.937660 17.281800
151  2 -0.0361  7.707790 12.127700  4.124200
152  2 -0.0772 11.440800 11.705100 17.359200
153  2 -0.1109 21.670800  8.117220  3.828260
154  2 -0.1967 -0.039749  8.337840 16.880900
155  2 -0.0754 19.940600 15.990700  3.752790
156  2 -0.0786  0.017289 16.904300 17.375500
157  2 -0.0742  8.821780  7.440730  3.832540
158  2 -0.0081 12.527100  7.517890 17.641000
159  2 -0.0975  8.741960 16.699200  4.057630
160  2 -0.0533 11.657800 16.816900 17.509800
161  2 -0.7500  7.237780  1.328000 10.491400
162  2 -0.7762  6.745300  1.460030 23.751900
163  2 -0.8133  6.910650  9.852990 10.360200
164  2 -0.8403  6.488910  9.955120 23.469000
165  2 -0.7998 19.620100  1.782470 11.006100
166  2 -0.7754 19.218300  1.539580 23.940700
167  2 -0.7459 18.611700 10.159900 10.479300
168  2 -0.7990 19.130800  9.680410 23.888200
169  2 -0.7522  0.946978  1.293770  9.690270
170  2 -0.7573  0.514956  1.809270 24.257700
171  2 -0.7668  0.927312 10.193500 10.025100
172  2 -0.7606  0.432763 10.103000 23.765600
173  2 -0.7088 13.154700  1.608090 10.159500
174  2 -0.7404 12.856700  1.812020 24.037600
175  2 -0.7679 12.947200 10.000100 10.203400
176  2 -0.7710 12.906400 10.135000 24.000400
177  2 -0.0808  6.447490  3.553550  2.909340
178  2 -0.0930  1.956110  3.847460 16.930100
179  2 -0.0956  5.777370 12.209300  3.305050
180  2 -0.1175  1.821580 12.724800 16.629900
181  2 -0.1354 17.587000  3.449550  3.284760
182  2 -0.0303 13.655600  4.097520 16.566600
183  2 -0.0685 18.277700 12.114700  3.026710
184  2 -0.0605 13.549500 11.623800 16.764200
185  2 -0.0502  6.797940  7.393840  3.398980
186  2 -0.2308  3.137440  8.598750 17.235900
187  2 -0.1137  9.987040 15.006400  4.313810
188  2 -0.0856  2.017350 16.695000 16.672900
189  2 -0.0098 19.656900  7.869830  3.625420
190  2 -0.1083 14.562000  7.795040 17.173000
191  2 -0.0115 17.891400 15.958000  2.816150
192  2 -0.1347 13.721500 16.563300 16.995000
193  2 -0.4262  0.553214  5.415750  5.166460
194  2 -0.4281  0.770376  5.793620 20.054700
195  2 -0.4325  0.557953 13.985400  5.851110
196  2 -0.4434  0.578458 14.488900 20.177800
197  2 -0.4990 13.351000  5.819940  6.099570
198  2 -0.4414 13.074100  5.538650 20.018300
199  2 -0.4849 13.514700 14.163400  5.541170
200  2 -0.3649 12.554600 14.368100 20.026900
201  2 -0.4080  6.448770  5.461890  6.113690
202  2 -0.4680  6.428840  5.840490 19.231600
203  2 -0.5152  6.328280 14.377600  6.306420
204  2 -0.3471  6.534410 14.416500 19.018900
205  2 -0.3923 18.955500  6.000210  5.968860
206  2 -0.4700 18.930200  5.687560 19.832300
207  2 -0.3931 19.096000 14.134900  6.664620
208  2 -0.4147 18.695800 14.211800 19.829100
209  2 -0.8367 -1.998630  8.069450 12.202400
210  2 -0.8587 -2.558120  7.952500 25.971900
211  2 -0.8821 -2.030030 16.429000 12.300900
212  2 -0.8512 -2.311160 16.569000 25.768400
213  2 -0.8851 10.028200  7.722000 12.579200
214  2 -0.8658  9.728710  8.095420 25.913200
215  2 -0.8313 10.260300 16.962300 12.288100
216  2 -0.7845  9.872300 16.066600 25.868900
217  2 -0.8838 -2.007870  3.685930 12.114200
218  2 -0.8353 22.488700  3.398300 26.042600
219  2 -0.8636 -2.040040 12.046300 12.449700
220  2 -0.9265 -2.427030 11.801400 25.820600
221  2 -0.8538 10.338900  3.845360 12.718500
222  2 -0.7917  9.739190  3.506150 26.065900
223  2 -0.8799  9.956880 12.552900 11.822400
224  2 -0.9403  9.866670 12.019600 26.401100
225  2 -0.4452  0.714483  1.521850  0.840484
226  2 -0.4233  1.223870  1.629250 13.663300
227  2 -0.3990  0.633411  9.814470  0.973880
228  2 -0.4005  1.558080 10.217300 14.069100
229  2 -0.4408 13.012700  1.276420  0.967266
230  2 -0.4766 13.003100 18.961000 13.989200
231  2 -0.4115 12.738600  9.789670  1.256630
232  2 -0.3949 12.969500  9.782780 14.229000
233  2 -0.4525  6.921110  1.430580  0.792103
234  2 -0.4974  7.628010 18.484600 14.548700
235  2 -0.3934  6.786560 10.029700  0.672121
236  2 -0.4309  7.110130 10.496600 14.761800
237  2 -0.4358 19.472900  1.303130  0.796906
238  2 -0.4659 20.423200  1.918500 14.975900
239  2 -0.3848 19.446800  9.619550  0.827398
240  2 -0.4040 19.883300 10.285000 14.870000
241  2 -0.9505  3.771480  7.984970  8.014050
242  2 -0.8359  3.361800  8.191360 21.852000
243  2 -0.8721  3.625140 16.325000  7.801620
244  2 -0.9229  3.572540 16.762700 21.909900
245  2 -0.8354 16.102400  8.081210  8.188530
246  2 -0.8802 15.947000  7.354850 21.992500
247  2 -0.8577 16.327400 16.559200  8.319770
248  2 -0.8735 16.010700 16.464800 22.275100
249  2 -0.8645  3.729020  3.722140  7.772710
250  2 -0.8498  3.602890  3.784140 21.609700
251  2 -0.8431  3.600660 12.073200  8.421950
252  2 -0.8903  3.854740 12.150900 21.581500
253  2 -0.8671 16.032700  3.828310  8.621670
254  2 -0.8425 16.091900  3.742720 22.020200
255  2 -0.8959 16.181700 12.356000  8.486490
256  2 -0.9415 15.812900 12.085200 22.134200
257  2 -0.3655  6.910660  5.963100  0.455049
258  2 -0.4162  7.052210  6.199980 15.007700
259  2 -0.4677  7.114440 14.229300  0.641305
260  2 -0.3806  7.464900 14.831600 15.117700
261  2 -0.3773 19.508500  5.517060  1.016160
262  2 -0.4609 19.700500  5.913120 14.777400
263  2 -0.4694 19.302300 14.079500  0.490011
264  2 -0.4120 20.198400 14.086900 14.936800
265  2 -0.4744  0.596968  5.931280  0.943734
266  2 -0.3518  1.076750  6.079640 14.356100
267  2 -0.4670  0.511902 13.987400  0.829898
268  2 -0.3908  1.252860 14.355000 14.062900
269  2 -0.4657 12.617300  5.994980  1.298210
270  2 -0.3908 12.973200  6.155320 14.371600
271  2 -0.4366 13.171300 13.984800  0.781240
272  2 -0.4885 12.970400 14.079700 14.339700
273  2 -0.5162 22.096900  3.600720  8.183820
274  2 -0.5180 -2.278540  3.714780 21.608700
275  2 -0.3878 -2.614160 12.424700  8.110340
276  2 -0.3814 21.987300 12.106200 21.977800
277  2 -0.4941  9.849500  3.875180  8.571320
278  2 -0.3962 10.070000  3.290660 21.376100
279  2 -0.4065  9.514750 11.651500  7.774500
280  2 -0.4915  9.640280 12.179100 21.890100
281  2 -0.5287 22.580500  7.764180  8.310270
282  2 -0.4719 22.125100  7.968260 21.885800
283  2 -0.4572 -2.241060 16.041900  8.136630
284  2 -0.4290 22.480600 16.245200 21.635000
285  2 -0.4424 10.263600  8.097310  8.328240
286  2 -0.4877 10.409000  8.530250 22.000300
287  2 -0.4416  9.848380 17.121400  8.293040
288  2 -0.4089 10.187400 16.548200 21.857500
289  2 -0.4026  7.245940  1.732780  6.331300
290  2 -0.4357  6.883450  1.413530 19.429800
291  2 -0.4230  6.921080  9.887750  6.116900
292  2 -0.3489  6.903090 10.608500 19.583100
293  2 -0.4747 19.315200 18.737600  6.581200
294  2 -0.4636 18.590800  1.594070 19.798900
295  2 -0.4600 18.954600 10.113800  6.126930
296  2 -0.4661 18.797700  9.885730 19.747900
297  2 -0.3528  1.513510 18.070800  4.723340
298  2 -0.5056  1.146070  1.661230 19.985000
299  2 -0.4671  0.759343 10.422300  6.035020
300  2 -0.3570  0.167063 10.068500 20.068500
301  2 -0.4814 13.386800  1.933860  6.079480
302  2 -0.4114 13.064400  1.856580 19.961000
303  2 -0.4435 13.034700  9.898530  5.852790
304  2 -0.3860 13.223800  9.870650 19.875000
305  2 -0.4333  4.012150  3.925090 12.278200
306  2 -0.5024  3.951900  3.705910 25.858500
307  2 -0.4287  4.033210 12.409400 12.050400
308  2 -0.4084  3.366460 11.903200 26.403800
309  2 -0.4840 16.070500  3.876490 12.251800
310  2 -0.5580 16.649400  3.388310 26.011700
311  2 -0.4383 16.088900 12.272600 12.246200
312  2 -0.4414 16.492500 11.838100 26.120400
313  2 -0.4990  3.715170  7.773130 12.054400
314  2 -0.4761  3.438280  7.633970 25.800700
315  2 -0.4445  3.929660 16.699800 12.096000
316  2 -0.4552  3.814440 16.504300 26.057400
317  2 -0.4069 15.945100  8.311670 12.597200
318  2 -0.5173 16.128500  8.218900 26.051900
319  2 -0.4953 16.157900 16.364900 12.536400
320  2 -0.4973 15.792200 16.127600 25.896800

