Generated by pymatgen.io.lammps.data.LammpsData

48  atoms

 2  atom types

0.000000 11.973848  xlo xhi
0.000000 11.973848  ylo yhi
0.000000 6.997800  zlo zhi

Masses

1  106.42
2   78.96

Atoms

1   1  0.157055  1.344750 0.000000
2   1 11.407500 10.219900 0.000000
3   1 10.219900  0.157055 3.498900
4   1  1.344750 11.407500 3.498900
5   1  5.420620  7.331670 0.000000
6   1  6.143980  4.232930 0.000000
7   1  7.331670  6.143980 3.498900
8   1  4.232930  5.420620 3.498900
9   1  2.651440  3.918180 0.000000
10  1  8.913160  7.646420 0.000000
11  1  7.646420  2.651440 3.498900
12  1  3.918180  8.913160 3.498900
13  1  2.926240  9.905100 0.000000
14  1  8.638360  1.659500 0.000000
15  1  9.905100  8.638360 3.498900
16  1  1.659500  2.926240 3.498900
17  1  1.174040  7.160960 1.749450
18  1 10.390600  4.403640 5.248350
19  1 10.390600  4.403640 1.749450
20  1  1.174040  7.160960 5.248350
21  1  4.403640  1.174040 5.248350
22  1  7.160960 10.390600 1.749450
23  1  7.160960 10.390600 5.248350
24  1  4.403640  1.174040 1.749450
25  2  1.862390  1.103060 1.889900
26  2  9.702210 10.461500 5.107900
27  2  9.702210 10.461500 1.889900
28  2  1.862390  1.103060 5.107900
29  2 10.461500  1.862390 5.388800
30  2  1.103060  9.702210 1.609000
31  2  1.103060  9.702210 5.388800
32  2 10.461500  1.862390 1.609000
33  2  3.715280  7.089990 5.107900
34  2  7.849320  4.474610 1.889900
35  2  7.849320  4.474610 5.107900
36  2  3.715280  7.089990 1.889900
37  2  7.089990  7.849320 1.609000
38  2  4.474610  3.715280 5.388800
39  2  4.474610  3.715280 1.609000
40  2  7.089990  7.849320 5.388800
41  2  6.931600  0.944679 1.749450
42  2  4.633000 10.619900 5.248350
43  2  4.633000 10.619900 1.749450
44  2  6.931600  0.944679 5.248350
45  2 10.619900  6.931600 5.248350
46  2  0.944679  4.633000 1.749450
47  2  0.944679  4.633000 5.248350
48  2 10.619900  6.931600 1.749450

