Generated by pymatgen.io.lammps.data.LammpsData

80  atoms

 2  atom types

0.000000 12.003424  xlo xhi
0.000000 12.547520  ylo yhi
0.000000 14.084790  zlo zhi

Masses

1  106.42
2   78.96

Atoms

1   1  0.992118  1.296200 -0.138031
2   1  1.951410  1.300980  7.132290
3   1  0.992484  7.566770 -0.136471
4   1  1.951480  7.574740  7.132550
5   1  6.983840  1.438700 14.159700
6   1  8.058460  1.297830  7.095500
7   1  6.982900  7.711010 14.160000
8   1  8.058780  7.571660  7.095840
9   1  4.094860  1.457010 -0.183532
10  1  5.038600  1.451400  6.939970
11  1  4.093690  7.730830 -0.185768
12  1  5.038600  7.725340  6.940360
13  1  9.968090  1.575540  0.030430
14  1 10.846600  1.305710  7.138150
15  1  9.967520  7.849520  0.029084
16  1 10.846800  7.579580  7.138340
17  1  0.992574  4.628370 -0.137427
18  1  1.951520  4.622590  7.132140
19  1  0.992028 10.903300 -0.137085
20  1  1.951360 10.896300  7.132700
21  1  6.983980  4.485460 14.159900
22  1  8.058470  4.625670  7.095560
23  1  6.982760 10.759500 14.159700
24  1  8.058770 10.899500  7.095780
25  1  4.095290  4.466540 -0.183448
26  1  5.038720  4.472110  6.939870
27  1  4.093260 10.740200 -0.185861
28  1  5.038470 10.745800  6.940460
29  1  9.968300  4.348100  0.030142
30  1 10.846600  4.617770  7.138060
31  1  9.967310 10.621500  0.029365
32  1 10.846800 10.891600  7.138430
33  2  2.497620  2.961920  1.204850
34  2  3.490650  2.961800  8.337060
35  2  2.494670  9.235390  1.205150
36  2  3.490600  9.235500  8.337080
37  2  8.339400  2.961830  1.454660
38  2  9.493410  2.961720  8.330780
39  2  8.336800  9.235480  1.456050
40  2  9.493840  9.235580  8.331190
41  2 11.494000  1.016550  1.885690
42  2  0.262696  1.016900  9.089950
43  2 11.492700  7.287840  1.887240
44  2  0.262638  7.290130  9.089680
45  2  5.398250  0.983050  2.013610
46  2  6.410610  1.075840  8.968850
47  2  5.396980  7.255150  2.015110
48  2  6.410690  7.349470  8.969100
49  2 11.493300  4.907110  1.885650
50  2  0.262712  4.906630  9.089780
51  2 11.493500 11.183100  1.887280
52  2  0.262625 11.181000  9.089850
53  2  5.398400  4.940230  2.013640
54  2  6.410560  4.847680  8.968820
55  2  5.396830 11.216200  2.015080
56  2  6.410740 11.121600  8.969130
57  2  3.327950  1.737070  5.061930
58  2  2.462870  1.676050 12.069700
59  2  3.327960  8.010880  5.062350
60  2  2.460290  7.941270 12.069100
61  2  9.472580  1.667680  5.108010
62  2  8.485350  1.760000 12.136900
63  2  9.472590  7.942380  5.108340
64  2  8.484860  8.032000 12.136100
65  2  3.328020  4.186380  5.061840
66  2  2.462630  4.248190 12.070100
67  2  3.327890 10.460300  5.062450
68  2  2.460530 10.529100 12.068700
69  2  9.472450  4.255800  5.108000
70  2  8.485360  4.164160 12.136900
71  2  9.472720 10.528800  5.108350
72  2  8.484850 10.438500 12.136200
73  2  0.508243 -0.175201  5.903220
74  2 11.385300 -0.174094 12.957100
75  2  0.508209  6.098750  5.903080
76  2 11.384900  6.097640 12.957100
77  2  6.472160 -0.175383  5.681390
78  2  5.532690 12.372300 12.691700
79  2  6.472240  6.098930  5.681300
80  2  5.533010  6.098740 12.692200

