Generated by pymatgen.io.lammps.data.LammpsData

216  atoms

  2  atom types

0.00000000 18.23378715  xlo xhi
0.00000000 18.23378715  ylo yhi
0.00000000 18.23378715  zlo zhi

Masses

1  208.9804
2   78.9600

Atoms

1    1  1.00000  0.00000000  0.00000000  0.00000000
2    1  1.00000  0.00000000  0.00000000  6.07792905
3    1  1.00000  0.00000000  0.00000000 12.15585810
4    1  1.00000  0.00000000  6.07792905  0.00000000
5    1  1.00000  0.00000000  6.07792905  6.07792905
6    1  1.00000  0.00000000  6.07792905 12.15585810
7    1  1.00000  0.00000000 12.15585810  0.00000000
8    1  1.00000  0.00000000 12.15585810  6.07792905
9    1  1.00000  0.00000000 12.15585810 12.15585810
10   1  1.00000  6.07792905  0.00000000  0.00000000
11   1  1.00000  6.07792905  0.00000000  6.07792905
12   1  1.00000  6.07792905  0.00000000 12.15585810
13   1  1.00000  6.07792905  6.07792905  0.00000000
14   1  1.00000  6.07792905  6.07792905  6.07792905
15   1  1.00000  6.07792905  6.07792905 12.15585810
16   1  1.00000  6.07792905 12.15585810  0.00000000
17   1  1.00000  6.07792905 12.15585810  6.07792905
18   1  1.00000  6.07792905 12.15585810 12.15585810
19   1  1.00000 12.15585810  0.00000000  0.00000000
20   1  1.00000 12.15585810  0.00000000  6.07792905
21   1  1.00000 12.15585810  0.00000000 12.15585810
22   1  1.00000 12.15585810  6.07792905  0.00000000
23   1  1.00000 12.15585810  6.07792905  6.07792905
24   1  1.00000 12.15585810  6.07792905 12.15585810
25   1  1.00000 12.15585810 12.15585810  0.00000000
26   1  1.00000 12.15585810 12.15585810  6.07792905
27   1  1.00000 12.15585810 12.15585810 12.15585810
28   1  1.00000  0.00000000  3.03896453  3.03896453
29   1  1.00000  0.00000000  3.03896453  9.11689358
30   1  1.00000  0.00000000  3.03896453 15.19482263
31   1  1.00000  0.00000000  9.11689358  3.03896453
32   1  1.00000  0.00000000  9.11689358  9.11689358
33   1  1.00000  0.00000000  9.11689358 15.19482263
34   1  1.00000  0.00000000 15.19482263  3.03896453
35   1  1.00000  0.00000000 15.19482263  9.11689358
36   1  1.00000  0.00000000 15.19482263 15.19482263
37   1  1.00000  6.07792905  3.03896453  3.03896453
38   1  1.00000  6.07792905  3.03896453  9.11689358
39   1  1.00000  6.07792905  3.03896453 15.19482263
40   1  1.00000  6.07792905  9.11689358  3.03896453
41   1  1.00000  6.07792905  9.11689358  9.11689358
42   1  1.00000  6.07792905  9.11689358 15.19482263
43   1  1.00000  6.07792905 15.19482263  3.03896453
44   1  1.00000  6.07792905 15.19482263  9.11689358
45   1  1.00000  6.07792905 15.19482263 15.19482263
46   1  1.00000 12.15585810  3.03896453  3.03896453
47   1  1.00000 12.15585810  3.03896453  9.11689358
48   1  1.00000 12.15585810  3.03896453 15.19482263
49   1  1.00000 12.15585810  9.11689358  3.03896453
50   1  1.00000 12.15585810  9.11689358  9.11689358
51   1  1.00000 12.15585810  9.11689358 15.19482263
52   1  1.00000 12.15585810 15.19482263  3.03896453
53   1  1.00000 12.15585810 15.19482263  9.11689358
54   1  1.00000 12.15585810 15.19482263 15.19482263
55   1  1.00000  3.03896453  0.00000000  3.03896453
56   1  1.00000  3.03896453  0.00000000  9.11689358
57   1  1.00000  3.03896453  0.00000000 15.19482263
58   1  1.00000  3.03896453  6.07792905  3.03896453
59   1  1.00000  3.03896453  6.07792905  9.11689358
60   1  1.00000  3.03896453  6.07792905 15.19482263
61   1  1.00000  3.03896453 12.15585810  3.03896453
62   1  1.00000  3.03896453 12.15585810  9.11689358
63   1  1.00000  3.03896453 12.15585810 15.19482263
64   1  1.00000  9.11689358  0.00000000  3.03896453
65   1  1.00000  9.11689358  0.00000000  9.11689358
66   1  1.00000  9.11689358  0.00000000 15.19482263
67   1  1.00000  9.11689358  6.07792905  3.03896453
68   1  1.00000  9.11689358  6.07792905  9.11689358
69   1  1.00000  9.11689358  6.07792905 15.19482263
70   1  1.00000  9.11689358 12.15585810  3.03896453
71   1  1.00000  9.11689358 12.15585810  9.11689358
72   1  1.00000  9.11689358 12.15585810 15.19482263
73   1  1.00000 15.19482263  0.00000000  3.03896453
74   1  1.00000 15.19482263  0.00000000  9.11689358
75   1  1.00000 15.19482263  0.00000000 15.19482263
76   1  1.00000 15.19482263  6.07792905  3.03896453
77   1  1.00000 15.19482263  6.07792905  9.11689358
78   1  1.00000 15.19482263  6.07792905 15.19482263
79   1  1.00000 15.19482263 12.15585810  3.03896453
80   1  1.00000 15.19482263 12.15585810  9.11689358
81   1  1.00000 15.19482263 12.15585810 15.19482263
82   1  1.00000  3.03896453  3.03896453  0.00000000
83   1  1.00000  3.03896453  3.03896453  6.07792905
84   1  1.00000  3.03896453  3.03896453 12.15585810
85   1  1.00000  3.03896453  9.11689358 18.23378715
86   1  1.00000  3.03896453  9.11689358  6.07792905
87   1  1.00000  3.03896453  9.11689358 12.15585810
88   1  1.00000  3.03896453 15.19482263  0.00000000
89   1  1.00000  3.03896453 15.19482263  6.07792905
90   1  1.00000  3.03896453 15.19482263 12.15585810
91   1  1.00000  9.11689358  3.03896453  0.00000000
92   1  1.00000  9.11689358  3.03896453  6.07792905
93   1  1.00000  9.11689358  3.03896453 12.15585810
94   1  1.00000  9.11689358  9.11689358 -0.00000000
95   1  1.00000  9.11689358  9.11689358  6.07792905
96   1  1.00000  9.11689358  9.11689358 12.15585810
97   1  1.00000  9.11689358 15.19482263 -0.00000000
98   1  1.00000  9.11689358 15.19482263  6.07792905
99   1  1.00000  9.11689358 15.19482263 12.15585810
100  1  1.00000 15.19482263  3.03896453 -0.00000000
101  1  1.00000 15.19482263  3.03896453  6.07792905
102  1  1.00000 15.19482263  3.03896453 12.15585810
103  1  1.00000 15.19482263  9.11689358 18.23378715
104  1  1.00000 15.19482263  9.11689358  6.07792905
105  1  1.00000 15.19482263  9.11689358 12.15585810
106  1  1.00000 15.19482263 15.19482263  0.00000000
107  1  1.00000 15.19482263 15.19482263  6.07792905
108  1  1.00000 15.19482263 15.19482263 12.15585810
109  2 -0.66700  3.03896453  0.00000000  0.00000000
110  2 -0.66700  3.03896453  0.00000000  6.07792905
111  2 -0.66700  3.03896453  0.00000000 12.15585810
112  2 -0.66700  3.03896453  6.07792905  0.00000000
113  2 -0.66700  3.03896453  6.07792905  6.07792905
114  2 -0.66700  3.03896453  6.07792905 12.15585810
115  2 -0.66700  3.03896453 12.15585810  0.00000000
116  2 -0.66700  3.03896453 12.15585810  6.07792905
117  2 -0.66700  3.03896453 12.15585810 12.15585810
118  2 -0.66700  9.11689358  0.00000000  0.00000000
119  2 -0.66700  9.11689358  0.00000000  6.07792905
120  2 -0.66700  9.11689358  0.00000000 12.15585810
121  2 -0.66700  9.11689358  6.07792905  0.00000000
122  2 -0.66700  9.11689358  6.07792905  6.07792905
123  2 -0.66700  9.11689358  6.07792905 12.15585810
124  2 -0.66700  9.11689358 12.15585810  0.00000000
125  2 -0.66700  9.11689358 12.15585810  6.07792905
126  2 -0.66700  9.11689358 12.15585810 12.15585810
127  2 -0.66700 15.19482263  0.00000000  0.00000000
128  2 -0.66700 15.19482263  0.00000000  6.07792905
129  2 -0.66700 15.19482263  0.00000000 12.15585810
130  2 -0.66700 15.19482263  6.07792905 18.23378715
131  2 -0.66700 15.19482263  6.07792905  6.07792905
132  2 -0.66700 15.19482263  6.07792905 12.15585810
133  2 -0.66700 15.19482263 12.15585810  0.00000000
134  2 -0.66700 15.19482263 12.15585810  6.07792905
135  2 -0.66700 15.19482263 12.15585810 12.15585810
136  2 -0.66700  3.03896453  3.03896453  3.03896453
137  2 -0.66700  3.03896453  3.03896453  9.11689358
138  2 -0.66700  3.03896453  3.03896453 15.19482263
139  2 -0.66700  3.03896453  9.11689358  3.03896453
140  2 -0.66700  3.03896453  9.11689358  9.11689358
141  2 -0.66700  3.03896453  9.11689358 15.19482263
142  2 -0.66700  3.03896453 15.19482263  3.03896453
143  2 -0.66700  3.03896453 15.19482263  9.11689358
144  2 -0.66700  3.03896453 15.19482263 15.19482263
145  2 -0.66700  9.11689358  3.03896453  3.03896453
146  2 -0.66700  9.11689358  3.03896453  9.11689358
147  2 -0.66700  9.11689358  3.03896453 15.19482263
148  2 -0.66700  9.11689358  9.11689358  3.03896453
149  2 -0.66700  9.11689358  9.11689358  9.11689358
150  2 -0.66700  9.11689358  9.11689358 15.19482263
151  2 -0.66700  9.11689358 15.19482263  3.03896453
152  2 -0.66700  9.11689358 15.19482263  9.11689358
153  2 -0.66700  9.11689358 15.19482263 15.19482263
154  2 -0.66700 15.19482263  3.03896453  3.03896453
155  2 -0.66700 15.19482263  3.03896453  9.11689358
156  2 -0.66700 15.19482263  3.03896453 15.19482263
157  2 -0.66700 15.19482263  9.11689358  3.03896453
158  2 -0.66700 15.19482263  9.11689358  9.11689358
159  2 -0.66700 15.19482263  9.11689358 15.19482263
160  2 -0.66700 15.19482263 15.19482263  3.03896453
161  2 -0.66700 15.19482263 15.19482263  9.11689358
162  2 -0.66700 15.19482263 15.19482263 15.19482263
163  2 -0.66700  0.00000000  0.00000000  3.03896453
164  2 -0.66700  0.00000000  0.00000000  9.11689358
165  2 -0.66700  0.00000000  0.00000000 15.19482263
166  2 -0.66700  0.00000000  6.07792905  3.03896453
167  2 -0.66700  0.00000000  6.07792905  9.11689358
168  2 -0.66700  0.00000000  6.07792905 15.19482263
169  2 -0.66700  0.00000000 12.15585810  3.03896453
170  2 -0.66700  0.00000000 12.15585810  9.11689358
171  2 -0.66700  0.00000000 12.15585810 15.19482263
172  2 -0.66700  6.07792905  0.00000000  3.03896453
173  2 -0.66700  6.07792905  0.00000000  9.11689358
174  2 -0.66700  6.07792905  0.00000000 15.19482263
175  2 -0.66700  6.07792905  6.07792905  3.03896453
176  2 -0.66700  6.07792905  6.07792905  9.11689358
177  2 -0.66700  6.07792905  6.07792905 15.19482263
178  2 -0.66700  6.07792905 12.15585810  3.03896453
179  2 -0.66700  6.07792905 12.15585810  9.11689358
180  2 -0.66700  6.07792905 12.15585810 15.19482263
181  2 -0.66700 12.15585810  0.00000000  3.03896453
182  2 -0.66700 12.15585810  0.00000000  9.11689358
183  2 -0.66700 12.15585810  0.00000000 15.19482263
184  2 -0.66700 12.15585810  6.07792905  3.03896453
185  2 -0.66700 12.15585810  6.07792905  9.11689358
186  2 -0.66700 12.15585810  6.07792905 15.19482263
187  2 -0.66700 12.15585810 12.15585810  3.03896453
188  2 -0.66700 12.15585810 12.15585810  9.11689358
189  2 -0.66700 12.15585810 12.15585810 15.19482263
190  2 -0.66700  0.00000000  3.03896453  0.00000000
191  2 -0.66700  0.00000000  3.03896453  6.07792905
192  2 -0.66700  0.00000000  3.03896453 12.15585810
193  2 -0.66700  0.00000000  9.11689358 18.23378715
194  2 -0.66700  0.00000000  9.11689358  6.07792905
195  2 -0.66700  0.00000000  9.11689358 12.15585810
196  2 -0.66700  0.00000000 15.19482263  0.00000000
197  2 -0.66700  0.00000000 15.19482263  6.07792905
198  2 -0.66700  0.00000000 15.19482263 12.15585810
199  2 -0.66700  6.07792905  3.03896453  0.00000000
200  2 -0.66700  6.07792905  3.03896453  6.07792905
201  2 -0.66700  6.07792905  3.03896453 12.15585810
202  2 -0.66700  6.07792905  9.11689358  0.00000000
203  2 -0.66700  6.07792905  9.11689358  6.07792905
204  2 -0.66700  6.07792905  9.11689358 12.15585810
205  2 -0.66700  6.07792905 15.19482263  0.00000000
206  2 -0.66700  6.07792905 15.19482263  6.07792905
207  2 -0.66700  6.07792905 15.19482263 12.15585810
208  2 -0.66700 12.15585810  3.03896453  0.00000000
209  2 -0.66700 12.15585810  3.03896453  6.07792905
210  2 -0.66700 12.15585810  3.03896453 12.15585810
211  2 -0.66700 12.15585810  9.11689358 18.23378715
212  2 -0.66700 12.15585810  9.11689358  6.07792905
213  2 -0.66700 12.15585810  9.11689358 12.15585810
214  2 -0.66700 12.15585810 15.19482263  0.00000000
215  2 -0.66700 12.15585810 15.19482263  6.07792905
216  2 -0.66700 12.15585810 15.19482263 12.15585810

