Generated by pymatgen.io.lammps.data.LammpsData

320  atoms

  2  atom types

0.000000 24.721322  xlo xhi
0.000000 17.015391  ylo yhi
0.000000 27.370788  zlo zhi

Masses

1  208.9804
2   78.9600

Atoms

1    1  0.7585 21.539700  1.353360  0.679632
2    1  0.7448 -1.617830  1.358890 14.170000
3    1  0.7665 21.498100  9.766720  0.702676
4    1  0.7421 -1.693810 10.014200 14.225100
5    1  0.7238  9.105810 18.306700  0.629898
6    1  0.7181 10.550500  1.374360 14.130200
7    1  0.7443  9.157460  9.953850  0.680038
8    1  0.7456 10.580800  9.844480 14.209800
9    1  0.7745  4.395930  5.599030 10.188100
10   1  0.7979  3.268400  5.586130 24.223900
11   1  0.7851  4.191650 14.076800 10.235500
12   1  0.7663  3.051860 14.197300 24.108800
13   1  0.7567 16.700500  5.613240 10.399000
14   1  0.7842 15.393400  5.671860 24.120300
15   1  0.7800 16.609500 14.126800 10.287500
16   1  0.7781 15.376000 14.125600 24.102100
17   1  0.7579  4.429470  5.538650  6.150170
18   1  0.7237  2.978500  5.680830 19.984200
19   1  0.7584  4.517570 14.148900  6.045870
20   1  0.7288  2.901480 14.156300 19.907500
21   1  0.7394 16.707200  5.541970  6.191110
22   1  0.7348 15.238700  5.725400 19.959400
23   1  0.7438 16.758700 14.031900  6.164200
24   1  0.7428 15.293200 14.135600 19.959700
25   1  0.8068 -1.812110 18.437700 10.036500
26   1  0.7835 21.723600 18.317900 23.980500
27   1  0.7814 -1.853740  9.893690  9.948330
28   1  0.7693 21.592100  9.807260 23.930100
29   1  0.7743 10.325300 18.318100 10.179000
30   1  0.7890  9.263640 18.283500 24.053600
31   1  0.7761 10.382000  9.768720 10.178800
32   1  0.7678  9.490840  9.950020 24.028200
33   1  0.7480 21.606500  5.619910  0.762241
34   1  0.7256 -1.810710  5.709400 14.364600
35   1  0.7614 21.534300 14.086700  0.605715
36   1  0.7434 -1.721090 14.108700 14.193000
37   1  0.7410  9.165480  5.605750  0.612513
38   1  0.7227 10.571500  5.570330 14.210200
39   1  0.7470  9.131790 14.088800  0.631022
40   1  0.7588 10.620500 14.051100 14.317600
41   1  0.8021 -1.960250  5.552630 10.296800
42   1  0.7618 21.600800  5.641060 23.938900
43   1  0.8023 -1.851270 14.196400 10.129900
44   1  0.7808 21.630500 14.020500 23.983400
45   1  0.7764 10.316400  5.651290 10.139500
46   1  0.7857  9.312520  5.542060 23.926800
47   1  0.8006 10.411100 13.985600 10.185800
48   1  0.7733  9.419690 14.085900 23.909100
49   1  0.7619  4.553450 18.393800  6.098050
50   1  0.7332  2.882750 18.298300 19.985600
51   1  0.7491  4.474520  9.911650  6.185530
52   1  0.7185  3.062770  9.974530 20.064800
53   1  0.7592 16.762400 18.438800  6.322900
54   1  0.7212 15.183400  1.308740 19.934000
55   1  0.7223 16.795300  9.919770  6.254730
56   1  0.7362 15.259400  9.881800 19.841900
57   1  0.7895  4.341340 18.294200 10.107300
58   1  0.7671  3.096820  1.371880 24.130800
59   1  0.7530  4.194850  9.879780 10.199500
60   1  0.7527  3.166330 10.044100 24.131900
61   1  0.7663 16.678000 18.324800 10.406800
62   1  0.7806 15.369300  1.465640 24.131300
63   1  0.7548 16.575500  9.873120 10.310000
64   1  0.7801 15.446300  9.900840 24.003000
65   1  0.7950 -0.204317  7.729870 26.206900
66   1  0.8089  0.965040  7.795760 11.977900
67   1  0.7950 -0.220802 16.280000 26.287100
68   1  0.8360  1.113390 16.344800 11.951600
69   1  0.7808 12.078800  7.707680 26.164200
70   1  0.8025 13.297500  7.659970 12.069100
71   1  0.7960 12.143400 16.304100 26.272900
72   1  0.8418 13.303100 16.373100 12.154700
73   1  0.8248  6.342600  7.727590 25.849800
74   1  0.7973  7.589970  7.712990 12.333200
75   1  0.8268  6.498840 16.141100 25.907500
76   1  0.7871  7.659910 16.101600 12.454200
77   1  0.8200 18.641700  7.755660 25.782700
78   1  0.7833 19.981400  7.931600 12.497900
79   1  0.8256 18.605100 16.382700 25.862900
80   1  0.7917 19.985000 16.283400 12.409900
81   1  0.7560 -0.034886  3.521640 26.182100
82   1  0.8173  1.206420  3.517150 11.975300
83   1  0.7914 -0.286724 11.998400 26.121600
84   1  0.8280  1.054330 12.211200 11.957500
85   1  0.7878 12.076200  3.518110 26.112000
86   1  0.8127 13.302200  3.531580 12.077300
87   1  0.7840 12.178500 11.998200 26.232700
88   1  0.8435 13.358700 11.905100 12.040000
89   1  0.8318  6.463360  3.410240 26.013400
90   1  0.8040  7.506920  3.322330 12.321700
91   1  0.8188  6.468740 12.003400 25.792100
92   1  0.7959  7.569890 11.819100 12.304800
93   1  0.8124 18.650400  3.544980 25.757100
94   1  0.7879 19.998100  3.545620 12.547400
95   1  0.8157 18.639100 12.121800 25.752200
96   1  0.7972 20.015300 12.128700 12.348300
97   1  0.7851  1.472920  7.732890  7.997500
98   1  0.8107  0.300485  7.749120 22.171200
99   1  0.7869  1.588930 16.297300  7.871930
100  1  0.8332  0.249307 16.234800 22.183100
101  1  0.7910 13.814400  7.780960  8.163600
102  1  0.8337 12.489100  7.766860 22.185200
103  1  0.7833 13.829500 16.206300  7.959260
104  1  0.8393 12.510600 16.254600 22.211300
105  1  0.8229  7.098200  7.710600  8.348210
106  1  0.7738  6.038780  7.640320 21.967500
107  1  0.8268  7.187380 16.188900  8.389900
108  1  0.7660  5.947890 16.240800 21.890600
109  1  0.8034 19.578300  7.827170  8.593850
110  1  0.7688 18.242400  7.786310 21.677600
111  1  0.8204 19.501000 16.257200  8.374910
112  1  0.7922 18.166100 16.322600 21.758400
113  1  0.7951  1.494220  3.437450  7.976630
114  1  0.7975  0.187952  3.386120 22.304700
115  1  0.7730  1.338830 12.074000  7.909520
116  1  0.8101  0.275270 12.160100 22.081500
117  1  0.7917 13.739500  3.340790  8.161280
118  1  0.8128 12.527300  3.517040 22.147200
119  1  0.7889 13.740800 12.067700  8.182560
120  1  0.8233 12.556900 12.189500 22.064600
121  1  0.8282  7.212490  3.401050  8.331870
122  1  0.7883  5.932920  3.495520 21.795600
123  1  0.8163  7.125030 12.031500  8.334200
124  1  0.7861  6.087750 11.962400 21.857000
125  1  0.8425 19.670400  3.486500  8.424050
126  1  0.7774 18.182700  3.481710 21.793200
127  1  0.8063 19.507500 12.090500  8.386900
128  1  0.7770 18.256600 12.087200 21.726600
129  2 -0.8229  7.322570  5.530810 10.324600
130  2 -0.8045  6.215190  5.491270 23.945000
131  2 -0.8109  7.434890 14.002900 10.392100
132  2 -0.8114  6.195530 14.095400 23.811400
133  2 -0.8043 19.818400  5.557970 10.487400
134  2 -0.8111 18.506200  5.623080 23.789100
135  2 -0.8148 19.853600 14.181300 10.413400
136  2 -0.7993 18.510900 14.246300 23.850200
137  2 -0.7967  1.285760  5.636470 10.021800
138  2 -0.8088 -0.052232  5.712580 24.187100
139  2 -0.8273  1.250860 14.225600  9.995140
140  2 -0.8194 -0.076287 14.112900 24.136300
141  2 -0.8064 13.522100  5.607320 10.103600
142  2 -0.8275 12.342100  5.698610 24.139700
143  2 -0.7872 13.492800 14.137400 10.162400
144  2 -0.8252 12.401500 14.160900 24.244900
145  2 -0.0977 20.165900  3.640110  3.733130
146  2 -0.1034 -0.458792  3.365650 17.270700
147  2 -0.1040 20.233000 11.911900  3.560190
148  2 -0.0958 -0.270546 11.938600 17.373900
149  2 -0.0942  7.933300  3.519590  3.686170
150  2 -0.0947 11.807500  3.301190 17.313500
151  2 -0.0892  8.033790 12.063000  3.766770
152  2 -0.1047 11.751600 11.919700 17.287100
153  2 -0.1026 20.170600  7.879000  3.625790
154  2 -0.0975 -0.531749  7.995170 17.324500
155  2 -0.0968 20.205400 16.241700  3.667910
156  2 -0.1145 -0.567075 16.417600 17.105500
157  2 -0.0909  7.833410  7.705110  3.684450
158  2 -0.0889 11.880100  7.807630 17.406200
159  2 -0.0912  7.895570 16.201700  3.706750
160  2 -0.0825 11.856500 16.216800 17.379500
161  2 -0.8294  7.397340  1.282960 10.320000
162  2 -0.7885  6.213050  1.280410 24.031600
163  2 -0.8279  7.395670  9.758770 10.259800
164  2 -0.8110  6.286110  9.895050 23.902100
165  2 -0.7914 19.908400  1.378980 10.320700
166  2 -0.8040 18.408600 18.362400 23.812100
167  2 -0.8225 19.777800  9.945270 10.457000
168  2 -0.8079 18.492300  9.903270 23.773400
169  2 -0.8229  1.375580 18.413800  9.913770
170  2 -0.8359 -0.015002 18.333800 24.217500
171  2 -0.8130  1.168950  9.914120  9.977130
172  2 -0.7866 -0.072787  9.873280 24.253700
173  2 -0.8089 13.644000 18.418700 10.194500
174  2 -0.8085 12.351700  1.326700 24.126300
175  2 -0.8320 13.469100  9.869660 10.132300
176  2 -0.8040 12.385800  9.906610 24.070100
177  2 -0.1127  5.816440  3.398510  3.208070
178  2 -0.0896  1.670140  3.482060 16.879400
179  2 -0.1087  5.840110 12.089000  3.191330
180  2 -0.0884  1.864070 11.935700 16.813400
181  2 -0.0981 17.982700  3.538800  3.199210
182  2 -0.0882 13.970200  3.402890 16.867700
183  2 -0.0758 18.153000 11.835900  2.963250
184  2 -0.0878 13.868300 11.867400 16.733300
185  2 -0.0941  5.680290  7.813440  3.119660
186  2 -0.0900  1.725150  7.937530 16.876100
187  2 -0.1031  5.808760 16.203500  3.200750
188  2 -0.0874  1.587700 16.345600 16.743900
189  2 -0.0833 18.115900  7.792350  3.059320
190  2 -0.1083 14.045200  7.800190 16.893200
191  2 -0.0863 18.035400 16.291100  3.135010
192  2 -0.1129 14.037300 16.232700 16.961400
193  2 -0.4244  1.592860  5.425950  5.932500
194  2 -0.4047  0.185915  5.752980 20.060200
195  2 -0.4439  1.707330 14.156500  5.837010
196  2 -0.4512  0.118511 14.160500 20.170700
197  2 -0.4155 13.900500  5.534480  6.066230
198  2 -0.4429 12.464000  5.636300 20.148500
199  2 -0.4520 13.977300 14.010300  6.008040
200  2 -0.4296 12.438100 14.123800 20.061200
201  2 -0.4130  7.307010  5.651200  6.341900
202  2 -0.4218  5.867620  5.542580 19.716200
203  2 -0.4192  7.317960 14.155500  6.304860
204  2 -0.4073  5.760890 14.145500 19.605200
205  2 -0.4013 19.564500  5.661780  6.404670
206  2 -0.4428 18.030700  5.571750 19.661200
207  2 -0.4403 19.511000 14.081500  6.299120
208  2 -0.4679 17.999300 14.037200 19.755200
209  2 -0.8976 -1.927840  7.765650 12.200600
210  2 -0.8938 21.570300  7.741180 26.011600
211  2 -0.8903 -1.722620 16.305000 12.086100
212  2 -0.8946 21.700800 16.237900 26.018300
213  2 -0.9378 10.417400  7.733200 12.170700
214  2 -0.9092  9.214610  7.663690 25.922000
215  2 -0.9142 10.510000 16.064200 12.172400
216  2 -0.9464  9.292980 16.169100 25.938600
217  2 -0.8947 -1.795670  3.520410 12.116500
218  2 -0.8761 21.580700  3.473060 25.999500
219  2 -0.9055 -1.802410 12.166400 12.088900
220  2 -0.9062 21.558400 12.013700 25.989700
221  2 -0.9251 10.398000  3.444490 12.032900
222  2 -0.9399  9.323100  3.491090 25.904300
223  2 -0.9070 10.497300 11.952900 12.189400
224  2 -0.9434  9.282010 11.993000 26.033400
225  2 -0.4486 -0.469806  1.384690  0.966437
226  2 -0.4309  1.202810  1.379580 13.929800
227  2 -0.4422 -0.484859  9.841890  0.887768
228  2 -0.4325  1.009630 10.050600 13.936700
229  2 -0.4250 11.892800  1.330740  0.965501
230  2 -0.4615 13.282100  1.343330 14.083700
231  2 -0.4559 11.891000  9.857370  0.885421
232  2 -0.4269 13.396400  9.866440 14.075900
233  2 -0.4247  6.315100  1.231650  0.587507
234  2 -0.4348  7.748160  1.365380 14.473300
235  2 -0.4283  6.333480  9.924740  0.455071
236  2 -0.4670  7.760690  9.804020 14.302100
237  2 -0.4428 18.719800  1.392020  0.417977
238  2 -0.4616 20.281300 18.320700 14.423500
239  2 -0.4167 18.687400  9.868410  0.417670
240  2 -0.4489 20.271500 10.094800 14.516100
241  2 -0.9298  4.341920  7.670830  8.098180
242  2 -0.8956  3.129050  7.678430 22.230000
243  2 -0.9280  4.407200 16.201900  8.179710
244  2 -0.9318  3.017260 16.269800 22.069500
245  2 -0.9108 16.667500  7.745200  8.369610
246  2 -0.9107 15.328600  7.838230 21.977600
247  2 -0.9188 16.632300 16.238100  8.285670
248  2 -0.9111 15.311900 16.222900 22.102600
249  2 -0.9308  4.396850  3.438810  8.132770
250  2 -0.8993  3.097640  3.593620 22.159300
251  2 -0.9227  4.343560 12.077600  8.176890
252  2 -0.9280  3.048480 12.043200 21.975500
253  2 -0.8931 16.752100  3.484900  8.307520
254  2 -0.9146 15.335700  3.560360 22.131700
255  2 -0.9364 16.650900 12.045800  8.313250
256  2 -0.9164 15.378500 12.034000 21.887200
257  2 -0.4407  6.359490  5.569770  0.483713
258  2 -0.4230  7.743660  5.509110 14.400900
259  2 -0.4375  6.290700 14.121600  0.426147
260  2 -0.4426  7.777840 14.082300 14.422600
261  2 -0.4381 18.806400  5.663130  0.419982
262  2 -0.4449 20.082100  5.644790 14.505000
263  2 -0.4391 18.810900 14.154900  0.505484
264  2 -0.4440 20.319000 14.193300 14.517900
265  2 -0.4291 -0.325093  5.708070  1.028680
266  2 -0.4093  1.008310  5.721460 14.164800
267  2 -0.4209 -0.328770 14.125000  0.915644
268  2 -0.4209  1.156630 14.194300 14.026400
269  2 -0.4164 11.972100  5.505630  0.947767
270  2 -0.4293 13.412400  5.548090 14.128500
271  2 -0.4181 11.907800 14.206100  1.026380
272  2 -0.4157 13.349100 14.065500 14.064000
273  2 -0.4622 -1.959610  3.511510  8.274360
274  2 -0.4176 21.742000  3.276090 21.960200
275  2 -0.4668 -2.121430 11.909100  8.169620
276  2 -0.4246 21.732300 11.959900 21.929500
277  2 -0.4373 10.276300  3.298560  8.206190
278  2 -0.4438  9.210510  3.359130 22.038100
279  2 -0.4129 10.314100 11.948100  8.112440
280  2 -0.4618  9.586300 12.040300 21.984400
281  2 -0.4482 -2.050730  7.562350  8.265510
282  2 -0.4238 21.608000  7.736890 21.901600
283  2 -0.4557 -1.957440 16.308400  8.249910
284  2 -0.4156 21.773000 16.235800 22.052100
285  2 -0.4155 10.460500  7.717950  8.121170
286  2 -0.4176  9.341530  7.736340 21.891000
287  2 -0.4307 10.332200 16.093400  8.198310
288  2 -0.4484  9.498850 16.292600 22.011800
289  2 -0.4401  7.283100 18.340900  6.378750
290  2 -0.4254  5.594350 18.461500 19.595800
291  2 -0.4275  7.263890  9.848830  6.378730
292  2 -0.4389  5.870210  9.920890 19.832700
293  2 -0.4525 19.539700  1.368920  6.474020
294  2 -0.4368 18.032000  1.286020 19.681100
295  2 -0.4071 19.594300  9.858300  6.308610
296  2 -0.4036 18.086100  9.861080 19.473900
297  2 -0.4372  1.853180 18.338400  5.745840
298  2 -0.4529  0.161417 18.355200 20.289100
299  2 -0.4390  1.696660  9.834790  5.872080
300  2 -0.4103  0.190194  9.864520 20.101500
301  2 -0.4674 14.100300  1.397130  6.017480
302  2 -0.4227 12.413400  1.242650 20.194800
303  2 -0.4164 13.924900  9.910670  6.034270
304  2 -0.3881 12.343900  9.906140 20.134300
305  2 -0.4488  4.209460  3.441170 12.158800
306  2 -0.4596  3.353770  3.479050 26.109300
307  2 -0.4617  4.068290 11.971200 12.132700
308  2 -0.4340  3.098980 12.154000 26.075500
309  2 -0.4222 16.566000  3.504960 12.407800
310  2 -0.4526 15.365900  3.539490 26.067400
311  2 -0.4537 16.435100 11.993800 12.197100
312  2 -0.4687 15.548600 12.005500 26.002200
313  2 -0.4379  4.142910  7.699780 12.170300
314  2 -0.4416  3.246950  7.761010 26.070700
315  2 -0.4541  4.149870 16.347900 12.109800
316  2 -0.4214  3.256890 16.286500 26.101700
317  2 -0.4041 16.495000  7.733100 12.484000
318  2 -0.4600 15.399500  7.712090 25.965500
319  2 -0.4642 16.617200 16.207400 12.209600
320  2 -0.4461 15.530100 16.279600 26.082600

