Generated by pymatgen.io.lammps.data.LammpsData

8  atoms

2  atom types

0.000000 5.994813  xlo xhi
0.000000 5.946127  ylo yhi
0.000000 5.908152  zlo zhi
0.762470 0.762471 0.670942  xy xz yz

Masses

1  208.9804
2   78.9600

Atoms

1  1 5.609300 4.935949 4.407138
2  1 1.910454 1.681120 1.501014
3  2 1.922337 1.691576 4.376884
4  2 1.922337 4.539803 1.186899
5  2 5.597418 2.077265 4.721253
6  2 5.597417 4.925493 1.531268
7  2 2.772322 5.287754 4.721253
8  2 4.747433 1.329315 1.186899

