Generated by pymatgen.io.lammps.data.LammpsData

360  atoms

  2  atom types

0.000000 16.871067  xlo xhi
0.000000 22.058404  ylo yhi
0.000000 29.928687  zlo zhi

Masses

1  208.9804
2   78.9600

Atoms

1    1  0.7480  2.678300 13.393800 22.241600
2    1  0.7715  4.348170 17.784100 21.859500
3    1  0.8045  2.325280  6.254020 22.208500
4    1  0.7044  4.241580  9.967590 22.439000
5    1  0.7564  6.552690 13.747100 22.128900
6    1  0.8105  8.634200 17.651700 22.240000
7    1  0.8386  2.511530 21.318100 22.751900
8    1  0.7710  4.492230  2.571290 22.248300
9    1  0.8043  6.707080  6.012710 22.046200
10   1  0.6985  8.812120  9.734870 22.242300
11   1  0.7388 10.545300 13.116600 22.698900
12   1  0.6705 12.676300 17.173600 22.153000
13   1  0.7947  6.264580 21.556600 22.471900
14   1  0.7921  8.335650  2.752160 22.428300
15   1  0.8212 10.856600  6.138200 22.690600
16   1  0.7870 12.511800  9.285110 22.276000
17   1  0.7413 14.666000 13.990500 22.349300
18   1  0.7152 16.444100 17.563800 21.778000
19   1  0.8125 10.409500 21.033000 22.072500
20   1  0.7641 12.808800  2.865610 23.195400
21   1  0.8643 14.970800  5.915550 22.801600
22   1  0.7210  0.153974  9.808540 22.476600
23   1  0.8162 14.692200 20.593600 22.996900
24   1  0.7687  0.524253  2.867790 22.346300
25   1  0.7453  1.823940 14.008600 28.344000
26   1  0.7046  4.074230 17.586300 28.537900
27   1  0.7875  2.194880  6.725720 28.100300
28   1  0.7685  4.126290 10.804800 28.726700
29   1  0.7921  6.836460 13.794300 29.222400
30   1  0.7625  8.526420 17.684800 29.421800
31   1  0.8275  2.130010 21.327800 28.397700
32   1  0.8165  3.724250  2.887880 28.469400
33   1  0.7266  6.168550  6.439070 29.385600
34   1  0.7156  8.670230 10.282300 29.062600
35   1  0.6908 10.527300 13.587000 29.528200
36   1  0.8265 12.596100 17.761500 29.293500
37   1  0.8546  6.250320 21.503000 28.707500
38   1  0.8124  8.171190  2.793770 29.418600
39   1  0.7649 10.513400  6.158900 29.352300
40   1  0.7404 12.636200  9.336670 28.441800
41   1  0.7337 14.756600 13.626200 28.921900
42   1  0.7750  0.287691 17.300300 28.221100
43   1  0.8276 10.360400 21.323900 29.153200
44   1  0.7642 12.781700  2.479430 28.599400
45   1  0.8077 15.136200  6.207740 27.860700
46   1  0.8154 16.633400 10.119500 28.622200
47   1  0.7905 14.814400 21.229500 28.812100
48   1  0.8225 -0.059930  2.188990 27.918700
49   1  0.7753  2.317220 16.486300  2.163230
50   1  0.7656  4.026640 20.351600  2.350790
51   1  0.7310  1.886540  8.807830  2.459310
52   1  0.7904  3.672680 12.153000  2.065310
53   1  0.7157  6.224270 16.704400  2.712110
54   1  0.7410  8.429950 20.168500  2.332520
55   1  0.7904  2.381330  1.890190  2.035100
56   1  0.7113  4.510200  5.377430  2.355820
57   1  0.7605  6.767420  8.859290  2.530760
58   1  0.8518  8.817350 12.749600  2.812030
59   1  0.7751 10.522800 16.133300  3.061430
60   1  0.7588 12.569100 19.997200  2.666840
61   1  0.7418  5.837280  1.769800  2.462740
62   1  0.7518  8.366870  5.064570  2.402380
63   1  0.7599 10.482900  8.591090  2.830130
64   1  0.7914 12.981700 12.669200  2.786830
65   1  0.7563 14.897500 16.616000  1.902350
66   1  0.7912  0.049041 20.230300  1.934470
67   1  0.7937 10.749600  1.440770  2.848550
68   1  0.7561 13.134300  5.321360  1.899510
69   1  0.7529 14.111900  8.899780  2.044260
70   1  0.6915 16.047200 12.542400  2.588660
71   1  0.7119 14.502600  1.102700  2.462730
72   1  0.7873  0.120381  5.346630  1.746170
73   1  0.7839  1.834160 16.038600  8.377190
74   1  0.6126  4.111080 19.863400  8.617910
75   1  0.7992  2.323570  8.722360  8.362050
76   1  0.7712  4.094060 13.166500  8.730130
77   1  0.7567  6.128560 16.495800  8.097870
78   1  0.8294  8.442050 20.151900  8.473030
79   1  0.7008  2.480430  2.125550  8.346610
80   1  0.6831  4.672990  5.674270  8.885540
81   1  0.7372  6.295130  9.092170  8.242430
82   1  0.7436  8.782130 13.121700  8.974250
83   1  0.6929 10.876000 16.787300  9.482990
84   1  0.7428 12.533400 20.098100  9.651280
85   1  0.8391  6.034640  1.805390  8.560230
86   1  0.7818  8.715720  5.242180  8.343740
87   1  0.7861 10.403600  8.744300  8.695330
88   1  0.7331 12.632500 12.537600  8.780140
89   1  0.7948 14.788200 16.361300  9.223790
90   1  0.7706  0.291363 19.896500  9.749360
91   1  0.7453 10.736500  1.491520  8.156360
92   1  0.7590 12.605000  5.183010  9.029820
93   1  0.8238 14.995100  8.739870  8.054590
94   1  0.7168  0.297406 12.291200  8.721050
95   1  0.7158 14.770900  1.995530  9.398770
96   1  0.7269 -0.041756  5.089180  8.903840
97   1  0.7988 16.720500 15.470900 13.317100
98   1  0.8556  1.876140 19.049900 12.960700
99   1  0.7748 -0.099166  7.815520 12.684500
100  1  0.7486  1.632120 11.448500 12.194900
101  1  0.8227  3.828190 14.899200 12.253800
102  1  0.7246  6.449480 19.221200 12.264300
103  1  0.8902 16.079000  0.661534 13.085100
104  1  0.7519  2.027750  4.285760 12.066100
105  1  0.7750  3.884970  8.303310 11.925500
106  1  0.7489  6.582180 11.620400 12.159100
107  1  0.6967  8.802140 15.310100 12.124200
108  1  0.7358 10.423500 19.023200 12.859100
109  1  0.7292  4.294010  0.550638 11.847100
110  1  0.8489  8.442470  0.037625 15.796300
111  1  0.8188  8.684250  7.739380 12.078700
112  1  0.6397 10.950100 11.294400 11.927800
113  1  0.7285 12.935300 15.081500 12.249900
114  1  0.8433 14.776400 18.900800 13.391200
115  1  0.7707  8.035990  0.634967 12.195600
116  1  0.8106  9.823440  3.995800 12.053200
117  1  0.7038 12.301800  7.723200 12.719100
118  1  0.7002 14.815600 11.551100 12.155600
119  1  0.8146 12.404000  0.399759 12.340300
120  1  0.7429 15.075100  4.386710 12.871100
121  1  0.7484  0.259778 14.813000 18.743200
122  1  0.7454  2.156530 18.923500 18.600300
123  1  0.7450 16.726600  7.691560 19.245000
124  1  0.7037  1.776330 10.732300 19.140600
125  1  0.7131  4.524360 15.138000 18.872100
126  1  0.7235  6.900620 18.981600 19.087900
127  1  0.8168 16.850900 21.977000 18.787900
128  1  0.7740  1.767320  4.072660 18.738000
129  1  0.8609  4.201180  7.486570 18.707500
130  1  0.8650  6.597170 11.200800 19.059200
131  1  0.7743  8.702400 14.684200 18.800200
132  1  0.7108 10.376200 18.669100 18.770800
133  1  0.8664  4.105380  0.430857 18.638600
134  1  0.7957  5.997780  3.842690 18.654400
135  1  0.8005  8.369980  7.497290 19.382700
136  1  0.8376 10.626600 11.172100 19.089200
137  1  0.7440 12.656100 14.786600 19.013300
138  1  0.6845 15.399800 18.299800 18.565400
139  1  0.7428  8.873540  0.864857 19.332400
140  1  0.8439 10.704300  4.016050 19.095200
141  1  0.8177 13.057800  7.389730 19.235100
142  1  0.8254 14.919000 11.173500 19.257700
143  1  0.8340 12.769400  0.004203 19.301200
144  1  0.7778 14.675600  3.747480 19.194800
145  2 -0.8189 17.030000 15.130100  0.478780
146  2 -0.8406  1.843540 19.127000  0.170540
147  2 -0.8072  0.082811  7.543150  0.147280
148  2 -0.7782  1.706450 11.832100  0.269787
149  2 -0.7565  4.426180 14.474100  0.476137
150  2 -0.8140  5.809310 19.159000  0.614759
151  2 -0.8524  0.177483  0.377948  0.272303
152  2 -0.8744  2.169260  3.773480  0.331349
153  2 -0.7785  4.083180  8.451350  0.624315
154  2 -0.7400  6.836960 11.550100  1.161910
155  2 -0.8739  8.393390 14.997600  1.023000
156  2 -0.9033 10.536100 18.353700  0.796619
157  2 -0.8691  4.139330  0.382270  0.285145
158  2 -0.9886  6.281770  4.053410  0.762100
159  2 -0.8941  8.312700  7.920710  0.579954
160  2 -0.7969 10.797600 11.287000  1.328670
161  2 -0.8363 12.526000 15.065800  1.045090
162  2 -0.8819 14.737500 19.005100  0.527641
163  2 -0.8445  8.064350  0.226117  0.704156
164  2 -0.8125 10.580800  3.442340  0.815141
165  2 -0.9237 12.578100  7.511500  0.221570
166  2 -0.8856 14.449500 11.243600  0.607278
167  2 -0.9276 12.240200  0.028898  0.863040
168  2 -0.7948 15.067400  3.769500 29.780100
169  2 -0.4403  2.185960 16.650500 26.702000
170  2 -0.3160  4.476570 19.998900 26.619900
171  2 -0.5070  2.010460  9.543010 27.633000
172  2 -0.2578  4.848720 12.164000 26.271000
173  2 -0.2984  6.454790 15.566600 27.166800
174  2 -0.3970  8.288610 19.947800 27.685600
175  2 -0.4996  1.995360  1.315980 26.750100
176  2 -0.3101  4.169480  5.033990 26.831600
177  2 -0.2948  6.225040  8.742410 27.491300
178  2 -0.3384  8.495760 13.079800 27.231200
179  2 -0.1719  9.899120 16.263900 27.203600
180  2 -0.3897 12.663700 19.940300 27.691900
181  2 -0.2866  6.263900  2.057080 27.039700
182  2 -0.2396  8.504470  5.031410 27.427700
183  2 -0.2190  9.803580  8.051640 26.914500
184  2 -0.2732 12.454600 12.267400 26.776600
185  2 -0.3595 14.416400 15.951000 27.327300
186  2 -0.3309 16.282500 19.776800 26.821800
187  2 -0.3327  9.875380  1.323720 27.456700
188  2 -0.4188 12.540500  5.063060 27.349400
189  2 -0.3964 15.074700  8.372090 26.618800
190  2 -0.3661 16.482700 12.892400 26.867000
191  2 -0.4523 14.505600  1.312750 26.773300
192  2 -0.3232  0.599513  5.300010 26.229300
193  2 -0.2915  0.637322 15.441600 23.530500
194  2 -0.2975  1.818210 19.059200 23.972900
195  2 -0.3820  0.473213  7.563710 24.117100
196  2 -0.4038  1.797050 11.448100 24.173600
197  2 -0.4299  4.499270 15.150900 23.261900
198  2 -0.1997  6.702520 18.952900 24.574000
199  2 -0.3755 -0.284994  0.398694 24.050200
200  2 -0.4122  2.653580  3.831320 23.949700
201  2 -0.2470  4.645580  7.096070 24.045200
202  2 -0.3071  7.021120 10.981400 24.187700
203  2 -0.3210  8.485810 14.939300 23.742200
204  2 -0.2184 10.869600 17.975400 24.433200
205  2 -0.4254  4.463950  0.270615 24.326900
206  2 -0.3810  6.462310  4.104180 23.876500
207  2 -0.2889  8.206190  7.134020 23.995900
208  2 -0.3920 10.610000 10.343000 24.337900
209  2 -0.2839 11.857000 14.640000 24.448000
210  2 -0.3683 14.775800 18.159300 24.241500
211  2 -0.3662  8.385350  0.173460 24.109100
212  2 -0.3515 10.518800  3.988980 24.412200
213  2 -0.4032 12.726900  6.878870 24.474200
214  2 -0.2789 14.482800 10.949900 24.230300
215  2 -0.3903 12.137500 21.508800 23.986100
216  2 -0.4636 15.226200  3.851630 24.400200
217  2 -0.8273  2.008580 14.279800 10.394500
218  2 -0.7196  2.401410 17.826000 10.592600
219  2 -0.8779  1.949460  6.770010 10.634600
220  2 -0.7810  3.785860 10.461800  9.826990
221  2 -0.8012  5.733250 14.875400 10.282600
222  2 -0.7603  8.059600 17.921700 10.234400
223  2 -0.7336  1.348400 21.487600 11.766100
224  2 -0.8076  4.555940  2.709320 10.192200
225  2 -0.6948  6.735860  7.041770 10.354900
226  2 -0.8425  8.528570 10.357600 10.400200
227  2 -0.9552 10.637300 14.177600 10.387600
228  2 -0.8351 13.129100 17.554700 11.512800
229  2 -0.8945  6.554060 21.366600 10.380100
230  2 -0.7135  8.716310  2.834980 10.106800
231  2 -0.8948 10.393300  6.803360 10.297500
232  2 -0.8091 12.784000  9.967440 10.503500
233  2 -0.8279 14.992700 14.049400 10.478700
234  2 -0.7199 16.488300 17.437400 11.729700
235  2 -0.9043 10.555500 21.026700 10.949800
236  2 -0.8294 12.528200  3.170930 10.878200
237  2 -0.7474 14.674700  6.800850 10.639400
238  2 -0.7820 16.743400  9.866890 10.428400
239  2 -0.7967 14.617700 21.399400 10.973300
240  2 -0.8806 16.731500  2.815910 11.314500
241  2 -0.3335 16.327600 15.045900  7.173600
242  2 -0.3227  1.692750 19.058100  7.110550
243  2 -0.3627  0.288227  7.502450  6.921810
244  2 -0.3889  2.463250 11.184700  6.868430
245  2 -0.3704  3.962160 15.024400  6.438080
246  2 -0.3939  6.299950 19.113800  6.799810
247  2 -0.3447  0.133197  0.310840  7.922610
248  2 -0.3645  1.954490  4.452170  7.004480
249  2 -0.3437  3.967540  7.716490  6.388520
250  2 -0.3218  6.404540 12.025700  7.075270
251  2 -0.3723  8.617310 15.116600  7.161130
252  2 -0.3829 10.826400 18.822200  7.467520
253  2 -0.3506  4.349830  0.411265  6.542820
254  2 -0.4005  6.571470  4.052400  6.917680
255  2 -0.3688  8.464550  7.968110  6.491340
256  2 -0.2628 10.457200 11.505500  6.785600
257  2 -0.2517 12.695700 14.661300  7.060410
258  2 -0.3266 14.485200 19.113800  7.944300
259  2 -0.3365  8.305560  0.740171  6.848180
260  2 -0.3548 10.995500  3.537110  6.574980
261  2 -0.3873 12.433800  6.894550  7.185280
262  2 -0.3663 14.790200 11.767400  6.760030
263  2 -0.2330 12.777400  0.265483  6.570740
264  2 -0.3664 15.337700  4.061940  7.264050
265  2 -0.3075  1.735540 14.426500  3.814600
266  2 -0.4222  4.089870 18.109800  4.028000
267  2 -0.3426  2.278380  6.227260  3.784940
268  2 -0.3020  4.536840 10.606900  4.131770
269  2 -0.2672  6.057550 13.911300  3.999460
270  2 -0.4251  8.468570 18.234700  4.156450
271  2 -0.2952  1.641330 21.522300  4.035200
272  2 -0.3970  3.442490  2.791740  4.053760
273  2 -0.4335  6.469840  6.516660  4.203150
274  2 -0.3167  9.007560 10.347800  4.410300
275  2 -0.3586 10.918500 13.528400  4.465430
276  2 -0.2144 12.188900 17.504200  5.007950
277  2 -0.2275  6.316010 21.327500  4.605070
278  2 -0.3911  8.240910  2.715770  3.914660
279  2 -0.4749 10.683100  5.963400  3.603760
280  2 -0.3691 12.811300 10.346200  4.370400
281  2 -0.3648 14.710700 14.789000  3.985040
282  2 -0.3520  0.508854 17.427600  3.615750
283  2 -0.3628 10.676700 21.143900  4.528080
284  2 -0.2599 13.117200  2.494720  4.600500
285  2 -0.4453 14.757600  6.465380  3.367360
286  2 -0.3726 16.298600  9.265030  4.112390
287  2 -0.3921 14.559600 21.174000  4.059280
288  2 -0.1830 16.666000  2.286450  4.205430
289  2 -0.7533  2.354020 16.079600 20.611500
290  2 -0.8209  4.422180 20.295700 20.919800
291  2 -0.9166  2.313770  8.273120 20.435700
292  2 -0.8879  4.772330 11.937100 20.224700
293  2 -0.8371  6.676580 16.440700 20.318900
294  2 -0.9750  8.601810 20.033300 20.958400
295  2 -0.8111  2.506090  1.258910 20.504600
296  2 -0.8697  4.386320  5.358330 20.423100
297  2 -0.8362  6.241320  8.555000 20.587100
298  2 -0.9644  8.540480 12.431800 20.439700
299  2 -0.8532 10.259300 16.165800 20.652300
300  2 -0.8315 12.737500 20.043200 20.863100
301  2 -0.9009  6.381580  1.738060 20.576300
302  2 -0.8969  9.063660  5.313070 20.795300
303  2 -0.9137 10.829900  8.484750 20.655400
304  2 -0.8470 12.734000 11.823000 20.644000
305  2 -0.9676 14.595300 15.785900 20.507500
306  2 -0.8049  0.577798 19.906600 20.693500
307  2 -0.8915 10.530000  1.971790 20.796400
308  2 -0.8518 12.756000  4.917030 20.824000
309  2 -0.8916 14.867200  8.227380 21.175000
310  2 -0.8514  0.106236 12.466400 20.608100
311  2 -0.7138 15.064500  1.130220 20.654500
312  2 -0.8800 16.622800  5.087020 21.018400
313  2 -0.3217  1.886980 14.060500 16.786700
314  2 -0.2901  4.777030 17.675600 16.934700
315  2 -0.4379  1.443640  6.326900 17.393900
316  2 -0.2850  4.516840  9.822750 17.162100
317  2 -0.2222  6.019740 13.708100 16.444100
318  2 -0.3057  8.719330 16.759200 16.841200
319  2 -0.3791  1.984960 21.040300 16.872100
320  2 -0.4544  3.943460  2.935520 17.410900
321  2 -0.3072  6.856530  6.817570 17.148600
322  2 -0.3568  8.534860  9.882390 17.462800
323  2 -0.3345 10.873200 13.117500 17.236700
324  2 -0.3160 12.518000 18.077600 17.153600
325  2 -0.6261  6.823330 21.827600 17.771100
326  2 -0.4762  8.244480  2.644670 17.225200
327  2 -0.2494 10.373500  6.407210 17.090300
328  2 -0.3837 13.074800 10.003600 17.911300
329  2 -0.3396 14.926900 13.130100 17.520200
330  2 -0.5027  0.727968 17.617500 16.916000
331  2 -0.4243 10.966900 21.299500 17.065400
332  2 -0.3036 12.444500  2.717340 17.247000
333  2 -0.4015 14.563700  6.328810 17.296900
334  2 -0.2951  0.023510 10.253300 17.090000
335  2 -0.4510 14.266000 20.673100 17.875800
336  2 -0.4364 -0.036989  2.301320 17.492100
337  2 -0.3577  2.808070 16.310700 14.186600
338  2 -0.3682  4.593310 20.366900 14.162400
339  2 -0.2814  1.906670  9.617530 14.254200
340  2 -0.5291  4.186040 11.768700 12.920300
341  2 -0.2454  6.448780 16.500100 13.924700
342  2 -0.5237  8.151310 19.438400 14.386100
343  2 -0.1854  2.731980  1.494240 14.248400
344  2 -0.2219  4.180110  5.679060 13.455700
345  2 -0.3316  6.121640  8.793110 13.362500
346  2 -0.3503  8.794830 12.537100 13.986400
347  2 -0.3853 11.098300 16.189100 13.980500
348  2 -0.3287 12.891600 20.419800 14.635600
349  2 -0.3482  6.533790  1.904510 13.743000
350  2 -0.2004  6.681940  4.406900 11.824400
351  2 -0.3423 10.253200  8.342110 14.387600
352  2 -0.2284 12.761200 12.174200 14.509500
353  2 -0.3432 14.701300 15.733000 15.069200
354  2 -0.4103 -0.077082 19.862200 14.792200
355  2 -0.5202 10.291900  1.336060 13.701300
356  2 -0.2709 11.589800  4.736840 14.423700
357  2 -0.3151 15.258300  9.143090 14.332400
358  2 -0.3452 16.500800 12.278900 14.194200
359  2 -0.4046 14.279200  1.570990 14.312100
360  2 -0.3957  0.206952  5.201480 14.438100

