Generated by pymatgen.io.lammps.data.LammpsData

320  atoms

  2  atom types

0.000000 24.637781  xlo xhi
0.000000 17.058433  ylo yhi
0.000000 27.370788  zlo zhi

Masses

1  208.9804
2   78.9600

Atoms

1    1  0.7486 -1.897400 18.247400  0.837409
2    1  0.7472 21.646800 18.072000 15.092000
3    1  0.7441 -2.445470  9.469260  0.465786
4    1  0.7197 21.416700  9.787970 14.950600
5    1  0.7641 10.011000 17.840400  1.172570
6    1  0.6913  9.276330 18.427800 14.566000
7    1  0.7715  9.815990  9.600730  0.920279
8    1  0.7191  9.486430  9.716950 14.293000
9    1  0.7701  3.296220  5.376790 10.085700
10   1  0.7476  4.205450  5.269780 24.188700
11   1  0.7207  2.877680 14.800800 10.041900
12   1  0.7675  3.899310 14.172000 24.358800
13   1  0.7343 15.304300  5.819970 10.138100
14   1  0.7281 16.719800  5.364010 23.911800
15   1  0.7736 15.209300 14.106900 10.160400
16   1  0.7647 16.340200 13.629300 24.159500
17   1  0.6948  3.363930  5.525490  5.866300
18   1  0.7346  4.092670  5.211360 19.718400
19   1  0.7041  3.190840 14.591600  6.350220
20   1  0.6424  4.073300 14.037900 19.739700
21   1  0.7049 15.658000  5.601730  6.379770
22   1  0.7240 15.760000  4.985070 20.206100
23   1  0.6437 15.716400 14.325000  6.281330
24   1  0.6940 16.210100 13.880600 20.012400
25   1  0.7426 21.981500  1.306560 10.374300
26   1  0.7596 -1.943850  1.271930 24.265800
27   1  0.6913 21.215800  9.694580 10.073900
28   1  0.8008 -2.229080  9.476620 23.818200
29   1  0.7681  9.757930  1.052430 10.331500
30   1  0.7421 10.013100 17.998700 24.104800
31   1  0.7946  9.147420 10.260400  9.949930
32   1  0.7490 10.008600  9.663150 24.293300
33   1  0.7135 -1.894020  5.621720  0.835097
34   1  0.7971 21.872000  5.603260 14.909900
35   1  0.6752 -2.041790 13.721100  0.859958
36   1  0.7284 21.526700 14.348100 14.607000
37   1  0.7405  9.836130  5.090800  0.820075
38   1  0.6789  9.511440  5.115100 14.197900
39   1  0.7847 10.195500 13.963100  0.923569
40   1  0.7014  9.203820 14.029200 14.381500
41   1  0.6709 -2.793720  5.427350 10.286200
42   1  0.7928 -2.192680  5.406540 24.135900
43   1  0.7583 21.643800 14.261500 10.624500
44   1  0.7263 -1.852210 14.260100 23.957300
45   1  0.8126  9.324710  5.561540  9.966320
46   1  0.6882 10.480800  5.248990 24.009200
47   1  0.7480  9.020750 13.920300 10.202200
48   1  0.7092  9.756240 13.618000 24.162800
49   1  0.7142  2.742790 18.635900  5.962310
50   1  0.7328  3.902640 17.966800 19.769700
51   1  0.7808  3.241190  9.562050  5.886890
52   1  0.7009  3.997950  9.469420 19.961100
53   1  0.6233 15.882700  1.012900  5.823880
54   1  0.6628 16.179500 18.199900 20.176000
55   1  0.7176 14.977500  9.538050  5.600360
56   1  0.7104 16.414300  9.758990 19.592900
57   1  0.7674  2.873120  1.497190 10.292900
58   1  0.7887  3.891700 18.212700 24.003600
59   1  0.7370  2.972090  9.961900 10.159900
60   1  0.7382  4.074780  9.525490 24.280900
61   1  0.7749 15.390800  1.600950 10.379500
62   1  0.7266 16.139800 18.247800 24.128400
63   1  0.8550 15.549800  9.957040 10.207200
64   1  0.8180 16.825500  9.475950 23.937500
65   1  0.7384  1.137460  7.490240 26.400000
66   1  0.7240  0.140041  7.452750 11.977700
67   1  0.7400  1.008260 15.747600 26.575100
68   1  0.7534 -0.107587 16.190100 12.335800
69   1  0.8285 12.891300  7.402290 26.565800
70   1  0.8381 12.183400  7.661550 12.331700
71   1  0.7586 12.895700 15.925400 26.383900
72   1  0.7851 12.322600 16.272300 12.833600
73   1  0.7922  7.173970  7.130330 26.183600
74   1  0.7484  6.429510  7.562760 12.465200
75   1  0.7721  7.203910 15.840100 26.559400
76   1  0.8041  5.837310 16.009100 12.451800
77   1  0.8236 19.558800  7.617130 25.486000
78   1  0.7966 18.347100  7.844480 12.621700
79   1  0.7782 20.046900 16.011900 25.972700
80   1  0.8038 18.532700 16.337200 12.608600
81   1  0.7953  0.713762  3.497320 26.397100
82   1  0.7042 -0.043384  3.347690 12.442400
83   1  0.7456  1.036370 11.559000 26.653700
84   1  0.8001 -0.268606 11.752400 12.254900
85   1  0.8234 13.253700  3.168700 25.986200
86   1  0.7689 12.302000  3.529190 11.724100
87   1  0.7465 13.063700 11.571400 26.326600
88   1  0.8446 12.167200 12.192800 12.104700
89   1  0.7299  7.027620  3.147680 26.426600
90   1  0.7323  6.416280  3.203530 12.375700
91   1  0.8027  7.102050 11.650000 26.571800
92   1  0.6759  5.844230 11.471300 12.779200
93   1  0.7922 20.025000  3.122040 26.376600
94   1  0.7778 18.636000  3.191190 12.834400
95   1  0.7732 19.489800 11.916900 25.804100
96   1  0.7553 18.793800 12.062800 12.703100
97   1  0.7026  0.222662  7.536020  7.801780
98   1  0.8398  1.096110  7.538120 22.198500
99   1  0.7262 -0.093309 15.928900  7.508230
100  1  0.7955  1.182080 16.102700 22.323000
101  1  0.7817 12.468600  7.943030  7.944230
102  1  0.8015 13.374200  7.462220 22.155700
103  1  0.7749 12.849200 16.390200  7.975650
104  1  0.8437 13.107000 15.937800 22.246300
105  1  0.8947  6.150640  7.888060  8.246560
106  1  0.8114  7.037400  7.405850 21.891900
107  1  0.8156  6.090650 16.728300  8.165980
108  1  0.7758  6.808010 15.993300 22.178800
109  1  0.7424 18.209900  7.410180  8.542060
110  1  0.7736 19.589900  7.798930 21.548700
111  1  0.8394 18.583700 16.202200  8.365770
112  1  0.7913 18.891600 16.026100 22.239000
113  1  0.8346  0.110688  3.038990  8.111220
114  1  0.8614  1.382330  3.455760 22.115100
115  1  0.7857 -0.009837 11.653200  7.883590
116  1  0.8308  0.858738 11.615800 21.992700
117  1  0.7927 12.499300  3.360320  8.132630
118  1  0.7403 13.211800  2.959080 22.232200
119  1  0.7407 12.918400 11.802600  8.023550
120  1  0.8104 13.388600 11.400400 22.196100
121  1  0.7729  6.176190  3.496590  7.659980
122  1  0.8100  6.761820  3.378170 21.662800
123  1  0.8172  5.838490 12.147700  8.492980
124  1  0.7999  6.723100 11.275600 21.889100
125  1  0.7545 18.796400  3.742090  8.204750
126  1  0.7986 19.216400  3.529220 22.016800
127  1  0.8138 18.418300 11.957100  8.325110
128  1  0.8016 19.239700 11.917700 21.857800
129  2 -0.7477  6.118050  5.639520 10.012100
130  2 -0.8077  6.929320  5.161470 23.931900
131  2 -0.7787  6.002780 14.323400 10.278600
132  2 -0.7673  7.071160 13.565800 24.380800
133  2 -0.7403 18.971200  5.451800 10.912900
134  2 -0.8482 19.623200  5.266810 23.956700
135  2 -0.7281 18.541800 14.220400 10.493300
136  2 -0.8424 19.129200 13.802700 23.988800
137  2 -0.8150  0.182719  5.315010 10.073700
138  2 -0.7920  1.005090  5.404160 24.147900
139  2 -0.7201 -0.242386 13.802300  9.899720
140  2 -0.7966  0.932877 14.066600 24.231600
141  2 -0.7719 12.140400  5.842990  9.917250
142  2 -0.8221 13.224600  5.132400 24.352400
143  2 -0.7390 12.425600 14.125600 10.081400
144  2 -0.7672 13.026600 13.923900 23.909900
145  2  0.0009 19.108700  3.785450  3.939930
146  2 -0.0788 -1.820370  3.490090 17.842700
147  2 -0.0127 18.751600 11.702400  3.175700
148  2 -0.0973 22.430700 12.373600 17.858100
149  2 -0.0632  9.087700  1.025970  4.636150
150  2 -0.0600  9.940990  2.342250 17.762600
151  2  0.0220  5.883300 12.074700  3.853690
152  2 -0.0589 10.517100 11.518600 17.659000
153  2 -0.0449 21.367300  6.447450  3.830560
154  2 -0.1487 -2.056190  7.636480 17.465900
155  2 -0.0178 19.779400 16.730900  3.973180
156  2 -0.1057  3.091890 14.036700 16.402400
157  2 -0.0455  9.431710  7.503870  4.972020
158  2 -0.0551 15.481000  7.552040 16.097200
159  2  0.0267  9.739570 14.552400  5.203800
160  2 -0.0180  9.535970 15.939500 18.338800
161  2 -0.7532  5.848360 18.508800 10.127100
162  2 -0.7470  7.151320 18.370700 23.822600
163  2 -0.7909  6.093210  9.771970 10.075700
164  2 -0.7779  7.117720  9.300930 23.987700
165  2 -0.7043 18.629300  1.257770 10.496100
166  2 -0.7381 19.442900 18.104100 23.930700
167  2 -0.8004 18.219000  9.823880 10.467000
168  2 -0.8750 19.780400  9.718740 23.743800
169  2 -0.8488  0.059476 18.212800 10.299000
170  2 -0.7567  1.082940 18.280800 24.015800
171  2 -0.7835 -0.292286  9.740030 10.132700
172  2 -0.8012  1.329370  9.568560 23.797300
173  2 -0.8310 12.512400 18.352000 10.229000
174  2 -0.8349 13.063700 17.986100 24.149600
175  2 -0.7252 12.334100  9.868620 10.324100
176  2 -0.7582 13.113300  9.520760 24.195600
177  2 -0.0663  9.071150  3.547030  4.785180
178  2 -0.0096  0.353083  3.403610 17.501600
179  2 -0.1640  3.728610 11.998700  3.827260
180  2 -0.0106 -0.129381 11.785000 17.306700
181  2 -0.0755 17.588200  2.782400  2.813960
182  2 -0.0644 10.219400  4.824740 17.503800
183  2 -0.0766 16.596600 12.199400  2.664370
184  2 -0.0024 12.429600 12.130300 17.247100
185  2 -0.0458  9.179770  9.646690  4.581130
186  2 -0.1411  4.594940  7.333030 17.064800
187  2 -0.0369  9.401400 12.614400  4.640120
188  2 -0.0479  3.060280 16.328100 16.044900
189  2 -0.0578 22.393000  8.483080  4.091930
190  2 -0.0594 15.220500  5.286550 16.589200
191  2 -0.0789 17.879800 16.189700  3.034100
192  2 -0.0480 11.307300 14.974800 17.522700
193  2 -0.4297  0.645071  5.167280  5.623020
194  2 -0.4863  1.237520  5.392000 20.462300
195  2 -0.4214  0.436441 13.252700  5.515150
196  2 -0.3436  0.796964 14.031100 19.821500
197  2 -0.4958 12.787700  5.556270  6.195030
198  2 -0.4444 13.243500  5.491340 20.080600
199  2 -0.4549 12.797200 14.458700  5.892120
200  2 -0.4519 13.676900 13.434600 20.033900
201  2 -0.4159  6.292620  6.374890  5.897420
202  2 -0.4243  7.069250  5.519340 19.720100
203  2 -0.4099  6.030850 14.700600  6.387150
204  2 -0.4338  7.236640 13.747200 20.362400
205  2 -0.5192 18.356400  5.875140  6.424170
206  2 -0.4192 19.136300  5.177470 19.727100
207  2 -0.4069 18.950800 14.087300  6.443520
208  2 -0.4332 19.086000 14.417600 19.738300
209  2 -0.7610 21.412700  7.356150 12.651300
210  2 -0.9243 -2.086200  7.604180 25.809900
211  2 -0.9038 21.687400 16.375400 12.557800
212  2 -0.9438 -1.942020 16.121300 26.298500
213  2 -0.8286  9.295230  7.702890 12.245200
214  2 -0.8844  9.939490  7.378810 26.270400
215  2 -0.8399  9.288150 16.062800 12.535300
216  2 -0.9322  9.908920 16.044100 26.569200
217  2 -0.7899 21.548800  3.503700 13.027300
218  2 -0.9753 -1.965190  3.403740 26.101600
219  2 -0.8578 21.595300 11.943600 12.574600
220  2 -0.8315 -1.926150 11.637800 25.768700
221  2 -0.9249  9.390990  3.246280 12.019500
222  2 -0.8304 10.638100  2.803270 26.360900
223  2 -0.9013  9.411670 11.846400 12.251200
224  2 -0.9231 10.089100 11.751200 26.684100
225  2 -0.4928  0.601102 18.534000  1.377750
226  2 -0.4091 -0.063465 18.374200 14.773100
227  2 -0.4870  0.181006  9.297280  1.190220
228  2 -0.3170  0.149719  9.317400 14.559800
229  2 -0.4098 12.856500 18.026700  1.314280
230  2 -0.4353 12.176900  1.506530 14.542700
231  2 -0.4746 12.906200  9.218470  1.098370
232  2 -0.4270 12.240200  9.833200 14.173600
233  2 -0.4266  6.837760 18.299700  1.051170
234  2 -0.4292  6.307840 18.388000 14.763400
235  2 -0.4693  7.048810  9.409000  0.692872
236  2 -0.4457  6.442980  9.288580 14.855900
237  2 -0.4899 19.916700 18.199900  0.572538
238  2 -0.4820 19.080600 17.928200 15.203600
239  2 -0.4225 19.373500  9.495180  0.254881
240  2 -0.5255 18.739900 10.121200 14.803600
241  2 -0.8537  3.397400  7.616460  8.360660
242  2 -0.8708  4.152420  7.132880 22.020200
243  2 -0.9374  3.017160 16.583400  8.152550
244  2 -0.9086  4.062220 16.164200 22.095900
245  2 -0.8972 15.432100  8.060680  8.485930
246  2 -0.8330 16.392500  7.704520 21.861200
247  2 -0.9115 15.924500 16.339400  8.425600
248  2 -0.8782 16.018200 15.963200 22.274800
249  2 -0.8711  3.000520  3.480410  8.034400
250  2 -0.8955  4.049220  2.875170 21.720600
251  2 -0.8004  3.012210 11.795900  8.054710
252  2 -0.7978  3.690450 11.962400 22.205300
253  2 -0.8920 15.585500  3.708660  8.280550
254  2 -1.0060 16.064600  3.242310 22.026200
255  2 -0.8671 15.584800 11.785000  8.082430
256  2 -0.8905 16.483100 11.587000 22.234300
257  2 -0.4761  7.030220  5.353390  0.980691
258  2 -0.3838  6.699240  5.235990 15.003400
259  2 -0.5122  7.512190 14.222600  1.066510
260  2 -0.4682  6.123740 13.972000 14.640300
261  2 -0.3888 19.986300  5.893640  0.783838
262  2 -0.3385 18.971000  5.832760 15.399200
263  2 -0.4160 19.727300 14.030500  0.802888
264  2 -0.4760 18.806500 14.539800 14.884900
265  2 -0.4426  1.120230  5.394450  1.169810
266  2 -0.3450  0.109669  5.691090 14.779500
267  2 -0.4199  0.625366 13.389200  1.776260
268  2 -0.4162 -0.439548 13.940000 14.598700
269  2 -0.4744 12.536700  5.532810  1.012870
270  2 -0.4204 12.468300  5.473180 14.052400
271  2 -0.4770 13.041700 13.877800  1.019580
272  2 -0.4529 12.252500 14.050900 14.393500
273  2 -0.4730 22.102300  3.211460  8.071590
274  2 -0.3681 -2.179070  3.691550 22.033600
275  2 -0.4639 21.301300 12.267000  8.381090
276  2 -0.4381 -2.255430 11.778300 21.911500
277  2 -0.4783  9.472090  3.432500  8.244490
278  2 -0.3298 10.072400  3.135370 21.516300
279  2 -0.4601  8.491830 12.284900  8.041410
280  2 -0.4424  9.867410 11.321700 22.214900
281  2 -0.3989 21.329800  7.903520  7.710280
282  2 -0.3981 -1.947590  7.305260 21.587300
283  2 -0.4664 21.454400 16.353300  8.291140
284  2 -0.4573 -2.087970 16.539900 22.209100
285  2 -0.5099  9.418520  7.984030  8.597820
286  2 -0.4369 10.447500  7.559340 22.095300
287  2 -0.4290  9.803280 16.111100  8.360730
288  2 -0.3851  9.996160 16.096300 21.906800
289  2 -0.4999  5.898960  1.617240  5.973050
290  2 -0.3777  7.022820 18.126700 19.589200
291  2 -0.4283  6.009620  9.824650  6.437910
292  2 -0.5283  6.651650  9.641110 19.918200
293  2 -0.3733 18.951600  1.724100  6.269110
294  2 -0.3915 19.011300 18.151900 19.818700
295  2 -0.3669 17.900100  9.597530  6.268710
296  2 -0.5163 19.304000  9.819190 19.743800
297  2 -0.4972 -0.146992  1.263380  6.026890
298  2 -0.4292  1.240680 18.186700 20.033100
299  2 -0.4196  0.577496  9.209910  5.403300
300  2 -0.4365  1.111840  9.604210 20.033300
301  2 -0.4158 12.423900  1.309700  5.971100
302  2 -0.3826 12.636500 17.991900 20.277400
303  2 -0.5031 12.524200 10.385400  5.629680
304  2 -0.4165 13.379700  9.592650 20.176300
305  2 -0.3521  3.285300  3.368180 13.006900
306  2 -0.5107  3.910550  3.299400 26.047000
307  2 -0.5070  2.469710 12.393300 11.920200
308  2 -0.4808  4.158510 11.763900 26.344800
309  2 -0.4821 15.200100  3.598630 12.334200
310  2 -0.3544 16.741300  3.548980 26.520200
311  2 -0.5238 15.007800 12.188700 11.976600
312  2 -0.4380 16.370600 11.124500 26.119000
313  2 -0.4669  3.105510  7.516520 12.276600
314  2 -0.4380  4.206750  7.725530 26.678900
315  2 -0.4905  3.099670 16.520100 12.360200
316  2 -0.5258  3.732480 15.954700 26.393300
317  2 -0.4772 15.352500  7.529080 12.235900
318  2 -0.5152 16.772000  7.451520 25.644600
319  2 -0.4717 15.424400 16.378800 12.242800
320  2 -0.3966 16.564000 16.152200 26.114100

