Generated by pymatgen.io.lammps.data.LammpsData

320  atoms

  2  atom types

0.000000 16.864293  xlo xhi
0.000000 23.165087  ylo yhi
0.000000 24.472453  zlo zhi

Masses

1  208.9804
2   78.9600

Atoms

1    1  0.8727  1.095750 11.175000 10.892300
2    1  0.8279  1.327480 11.268100 22.135600
3    1  0.8212  0.802458 22.822000 10.656800
4    1  0.7976  0.911651 23.129800 23.273200
5    1  0.8331  5.174520 10.910900 10.450700
6    1  0.8169  5.138910 11.500100 22.557900
7    1  0.8436  4.965690 22.904900 10.406300
8    1  0.8811  5.511620 22.647800 22.930600
9    1  0.7901  9.308900 11.059800 10.472100
10   1  0.8287  9.513050 11.650700 22.681900
11   1  0.8602  9.727450 22.817900 10.461900
12   1  0.8441  9.563550 -0.232660 22.999800
13   1  0.8068 13.619700 11.405700 10.216500
14   1  0.8665 13.730900 11.553800 22.960000
15   1  0.8795 13.799900 22.882800 10.697900
16   1  0.7903 13.728900 -0.199763 23.018700
17   1  0.8317  3.321090  0.579984  1.892800
18   1  0.8503  2.901940  0.537889 14.243000
19   1  0.8976  3.068780 12.290900  1.613960
20   1  0.7998  3.304980 12.324200 14.675300
21   1  0.8214  7.279990  0.291796  2.595400
22   1  0.8010  7.072290  0.503019 14.265400
23   1  0.8376  7.781020 12.363200  1.703890
24   1  0.8408  7.245100 12.137000 14.134700
25   1  0.8515 11.783300  0.706017  2.209820
26   1  0.8058 11.415500  0.163941 14.141000
27   1  0.8684 11.714100 12.074900  2.035140
28   1  0.7930 11.597100 11.928000 14.504600
29   1  0.7929 15.372100  0.769640  1.775730
30   1  0.8431 15.886000  0.505888 14.493100
31   1  0.8400 15.720600 12.557400  1.618890
32   1  0.8816 15.811200 12.059100 14.426700
33   1  0.8512  3.062130  5.490520  7.792040
34   1  0.8979  3.169430  5.356420 20.214700
35   1  0.8352  3.217740 17.317900  8.201530
36   1  0.8493  3.197810 17.180500 20.221900
37   1  0.7580  7.625020  5.618010  8.034800
38   1  0.7978  7.086130  5.471000 20.417100
39   1  0.7851  7.531380 17.080900  8.016790
40   1  0.7769  7.106720 17.055200 20.691300
41   1  0.8033 11.374000  5.962210  8.366560
42   1  0.7729 11.897100  5.889000 20.468500
43   1  0.7485 11.449000 17.704800  7.974880
44   1  0.8405 11.819400 17.277000 19.791400
45   1  0.8104 16.084700  5.320240  8.019250
46   1  0.8237 15.820400  5.665700 19.793000
47   1  0.8504 16.250400 16.992700  8.334160
48   1  0.8387 15.865100 17.249900 20.227000
49   1  0.7639  1.352620  6.630040  3.896410
50   1  0.8086  0.831717  6.317890 16.046700
51   1  0.8292  0.877545 17.907400  4.829010
52   1  0.7725  1.013590 18.832400 16.494100
53   1  0.8432  5.181890  6.462110  4.728090
54   1  0.8446  5.019950  5.939800 16.730200
55   1  0.8359  5.470630 18.075900  4.817070
56   1  0.8107  5.406490 18.081600 16.448700
57   1  0.8280  9.198620  6.559280  4.719400
58   1  0.7871  9.737200  6.636220 16.669600
59   1  0.8102  9.544600 18.017700  4.101620
60   1  0.7878  9.385570 18.242300 16.695900
61   1  0.8696 13.624500  6.180960  3.855450
62   1  0.7401 13.148200  5.804760 16.612100
63   1  0.8368 13.855100 17.881500  4.867090
64   1  0.8604 13.975300 17.772200 16.759900
65   1  0.7741  0.863467  2.339910  6.253410
66   1  0.7988  1.148060  1.837900 18.074000
67   1  0.8301  0.939826 14.033900  6.333090
68   1  0.8383  1.094960 13.927300 18.248400
69   1  0.8494  5.450370  2.006680  6.140570
70   1  0.8475  4.865350  2.054700 18.445500
71   1  0.8367  5.271450 13.790800  5.881140
72   1  0.8039  5.431260 14.119800 18.704200
73   1  0.7900  9.429290  2.007040  5.968090
74   1  0.8280  8.904880  2.265210 18.284700
75   1  0.8186  9.613490 13.405300  5.647390
76   1  0.8272  8.982720 13.449500 18.377200
77   1  0.8064 13.988500  2.285380  6.292790
78   1  0.8082 13.768200  2.180400 18.166200
79   1  0.8004 13.768200 13.467800  6.094850
80   1  0.8215 13.727500 13.716200 17.986400
81   1  0.8715  2.973730  9.258090  5.913770
82   1  0.8479  3.083120  9.538130 18.913400
83   1  0.8457  3.182010 21.220500  6.486480
84   1  0.8144  2.892870 21.297300 18.860700
85   1  0.8387  7.607900 10.210400  6.574870
86   1  0.8301  7.532890  9.345210 19.407800
87   1  0.8242  7.510940 21.636000  6.331100
88   1  0.8266  7.325720 21.329400 18.697700
89   1  0.7954 11.515700  9.630650  6.175220
90   1  0.8101 11.544400  9.749380 19.068400
91   1  0.8339 11.769200 21.320200  6.434740
92   1  0.9129 11.550400 21.788600 19.413400
93   1  0.8051 15.515100 10.029100  6.189640
94   1  0.8386 15.837200  9.747450 18.600700
95   1  0.8558 16.047600 21.611700  6.790760
96   1  0.8129 16.169200 21.523300 19.140000
97   1  0.7888  2.888510  8.001150 13.177700
98   1  0.7917  3.104150  8.180460  0.785888
99   1  0.8231  3.038750 20.091300 12.439100
100  1  0.8595  3.255190 19.931800  0.651770
101  1  0.8501  7.385250  7.944020 12.530700
102  1  0.8129  6.992950  8.448600  0.244050
103  1  0.8270  7.533900 19.248800 12.502100
104  1  0.8323  7.301310 19.525300  0.559150
105  1  0.8191 11.584700  8.404730 12.647700
106  1  0.8375 11.799100  7.810750  0.770003
107  1  0.8074 11.727600 19.315800 12.572800
108  1  0.8510 11.438100 19.662000  0.090205
109  1  0.8069 15.929600  8.149230 12.517500
110  1  0.7834 16.403800  8.176620  0.678407
111  1  0.8321 15.852100 19.430600 12.891300
112  1  0.8000 15.831000 19.695200  0.763631
113  1  0.8393  1.003280  4.416660  0.150423
114  1  0.8657  0.931836  3.764410 12.291700
115  1  0.8573  0.849568 15.997600 24.039300
116  1  0.8310  1.205750 15.340600 12.510400
117  1  0.8363  5.529650  4.376780 24.563300
118  1  0.8000  5.310430  4.158320 12.150200
119  1  0.8362  5.238930 15.852400 24.513700
120  1  0.8029  5.335230 15.432900 11.881900
121  1  0.7984  9.262700  3.932390 24.164500
122  1  0.7474  9.315660  3.896440 12.305500
123  1  0.8880  9.519510 15.612000 -0.354602
124  1  0.8017  9.325930 15.630600 11.704400
125  1  0.8324 13.955700  3.987410 24.644100
126  1  0.8753 13.608800  3.658190 12.713900
127  1  0.8332 13.581300 15.582500 -0.125353
128  1  0.8334 13.550000 16.039600 12.226800
129  2 -0.5981  1.316520  3.770020  8.706220
130  2 -0.4194  1.086090  3.727080 20.836000
131  2 -0.5766  1.410900 15.520200  9.000630
132  2 -0.5440  1.180450 15.467500 20.799100
133  2 -0.4618  5.197210  3.476130  8.527240
134  2 -0.5503  5.022580  3.789750 21.201600
135  2 -0.5126  5.532670 15.028700  8.841380
136  2 -0.6154  4.765850 15.419700 21.137500
137  2 -0.4986  9.722030  3.663930  8.977630
138  2 -0.5385  9.082530  3.704670 21.264400
139  2 -0.4872  9.673850 15.129500  8.676750
140  2 -0.4889  9.463120 15.391700 20.810100
141  2 -0.4215 13.653900  3.668520  8.822810
142  2 -0.4958 13.861100  3.792410 20.834000
143  2 -0.4751 13.749400 15.629000  8.708310
144  2 -0.5199 14.083900 15.171100 20.691600
145  2 -0.6741  3.304440  8.466920  3.449730
146  2 -0.5266  3.250770  8.316070 15.962500
147  2 -0.5474  3.291750 19.376300  3.926760
148  2 -0.5041  3.538980 19.973000 16.090400
149  2 -0.5131  7.059010  8.146840  4.060830
150  2 -0.4273  7.168200  8.076030 16.411800
151  2 -0.6115  7.592280 19.767000  4.076860
152  2 -0.5683  7.322120 20.105000 16.089600
153  2 -0.5392 11.304900  8.141140  3.711840
154  2 -0.5301 11.631000  8.485000 16.271400
155  2 -0.4685 11.992300 19.791000  3.802640
156  2 -0.4375 11.957800 19.662000 16.129700
157  2 -0.4961 15.700400  8.658690  3.655950
158  2 -0.5430 15.569600  7.957650 16.273400
159  2 -0.4918 15.767200 19.908100  4.238280
160  2 -0.5219 15.620100 20.329800 16.121400
161  2 -0.4506  2.954740  9.287610 10.095400
162  2 -0.5346  3.256110  9.418690 21.850200
163  2 -0.5795  2.806120 21.112800  9.913560
164  2 -0.4835  3.246870 20.989600 22.553300
165  2 -0.5823  7.167740  9.203570  9.891150
166  2 -0.6135  7.303720  9.630140 22.199000
167  2 -0.4416  7.428650 21.180900 10.132300
168  2 -0.5357  7.718510 21.049900 22.450400
169  2 -0.5754 11.823300  9.245860  9.864820
170  2 -0.5051 11.883900  9.981810 22.427500
171  2 -0.5246 11.604300 21.198700  9.789740
172  2 -0.5883 11.567200 21.018300 22.103000
173  2 -0.5075 15.996900  9.508230  9.844850
174  2 -0.4541 15.971700  9.243980 22.287900
175  2 -0.5079 15.923600 20.893800 10.178600
176  2 -0.5564 15.547500 21.283900 22.229500
177  2 -0.4553  1.265860  2.798070  2.646490
178  2 -0.5653  1.110830  2.401660 14.883700
179  2 -0.4927  0.853291 14.195300  2.155460
180  2 -0.5055  0.758302 14.113700 15.198100
181  2 -0.4536  5.427900  2.593920  2.903990
182  2 -0.5018  5.182670  2.336470 14.876500
183  2 -0.4667  5.619390 13.923500  2.578260
184  2 -0.5189  5.496380 14.091600 14.619100
185  2 -0.4936  9.432350  2.288930  2.675480
186  2 -0.5537  9.424920  2.157640 15.045700
187  2 -0.4935  9.538770 14.346700  2.590810
188  2 -0.4377  9.323440 13.968100 15.140800
189  2 -0.6256 13.911100  2.546300  2.616980
190  2 -0.6042 13.653400  1.923130 14.892000
191  2 -0.5182 13.450400 14.238500  2.461310
192  2 -0.4850 13.943500 14.093400 14.915600
193  2 -0.4801  1.409270 11.418700  4.570870
194  2 -0.5376  0.957333 10.925800 17.170800
195  2 -0.4801  1.250500 22.733200  4.902140
196  2 -0.6280  1.345100 22.476900 16.925300
197  2 -0.4164  5.271900 11.285600  4.573290
198  2 -0.4287  5.425810 11.440000 16.928200
199  2 -0.5868  5.206810 22.490000  4.671850
200  2 -0.4765  4.964290 22.594000 17.081800
201  2 -0.5339  9.487200 11.012000  4.086230
202  2 -0.4844  9.430030 10.659600 17.230500
203  2 -0.5617  9.724810 22.604700  4.698410
204  2 -0.5264  9.693340 22.600400 17.595500
205  2 -0.5844 13.250600 11.026900  4.534360
206  2 -0.5435 13.702700 11.168900 17.111100
207  2 -0.5042 13.775700 22.825400  4.905440
208  2 -0.4784 13.816500 22.536100 17.834000
209  2 -0.4844  2.977620  0.685359  7.906250
210  2 -0.4647  3.078380  0.705024 20.542300
211  2 -0.4255  2.929860 12.365800  7.852970
212  2 -0.5346  3.241290 12.456600 19.729600
213  2 -0.5983  7.324840  0.826130  7.633890
214  2 -0.5291  7.160490  0.564728 20.152100
215  2 -0.5839  7.663760 12.563300  7.303270
216  2 -0.5965  7.173330 12.476900 20.241500
217  2 -0.4711 11.697500  0.987786  7.598190
218  2 -0.4658 11.867200  1.187730 20.271800
219  2 -0.5576 11.765700 11.962600  7.848020
220  2 -0.5106 11.249100 12.528400 20.056500
221  2 -0.6088 15.663500  0.847240  8.132950
222  2 -0.4565 16.107500  0.958183 20.597400
223  2 -0.5578 15.795100 12.700200  7.862820
224  2 -0.5234 15.879800 12.245000 19.897600
225  2 -0.5536  3.333260  5.386670  1.675680
226  2 -0.5376  3.099770  5.169140 14.193600
227  2 -0.4771  2.882970 16.883800  1.308350
228  2 -0.4573  3.297150 16.893500 14.048900
229  2 -0.4879  7.262180  5.452920  1.737380
230  2 -0.5434  7.245270  5.507280 13.953100
231  2 -0.5038  7.255040 16.788000  1.716930
232  2 -0.5568  7.520660 16.561900 13.515200
233  2 -0.5033 11.573300  5.200000  2.251230
234  2 -0.5348 11.692300  5.710300 14.123900
235  2 -0.4853 11.262400 16.986400  1.374750
236  2 -0.5618 11.734500 16.898500 13.912400
237  2 -0.6224 15.888200  5.771420  1.762500
238  2 -0.5451 15.722800  4.878080 13.705800
239  2 -0.4766 15.639900 17.019900  1.875600
240  2 -0.5406 15.657700 16.892000 13.888700
241  2 -0.4751  1.046590  6.622320 10.984400
242  2 -0.4914  1.471800  6.619790 23.101600
243  2 -0.4825  0.970302 17.983800 10.990100
244  2 -0.5013  0.884610 18.564300 23.307000
245  2 -0.4608  5.194590  6.550730 10.728900
246  2 -0.5294  5.137330  6.925520 23.370400
247  2 -0.5016  5.268850 18.376700 10.862400
248  2 -0.5577  5.270340 18.465400 23.571600
249  2 -0.5739  9.563730  6.660550 11.333800
250  2 -0.4781  9.851420  6.936010 23.143900
251  2 -0.5578  9.462860 18.468600 10.441800
252  2 -0.5131  9.263020 17.992700 23.036200
253  2 -0.4123 13.846200  6.190160 11.105000
254  2 -0.4678 14.084500  6.590160 23.604500
255  2 -0.5324 13.782300 18.496200 10.924800
256  2 -0.5006 13.471200 18.249100 23.149000
257  2 -0.6558  1.084700 10.820700  0.724684
258  2 -0.6908  0.897666 10.222800 13.396800
259  2 -0.6374  1.121880 21.818500  1.435880
260  2 -0.6966  1.096290 21.645700 13.540000
261  2 -0.6050  5.006070 10.503800  1.083860
262  2 -0.6087  5.392020  9.923710 13.194500
263  2 -0.6891  5.302840 21.851800  1.092790
264  2 -0.5857  5.023510 21.795100 13.352500
265  2 -0.5895  9.764240 10.423500  0.857606
266  2 -0.6591  9.398420 10.263100 13.251900
267  2 -0.5706  9.418100 21.723900  1.240440
268  2 -0.6411  9.452490 21.281800 12.972100
269  2 -0.6144 13.777100 10.557400  1.053960
270  2 -0.6168 13.936900 10.110100 13.322800
271  2 -0.6429 13.399400 21.683700  1.257980
272  2 -0.6126 13.599700 21.603800 13.083900
273  2 -0.5748  2.847920  1.901880 11.423500
274  2 -0.5188  3.472950  1.536030 23.720600
275  2 -0.6208  3.054750 12.900600 11.863500
276  2 -0.5799  3.090820 13.133600 23.375300
277  2 -0.5806  7.015970  1.488480 11.367500
278  2 -0.5661  7.616210  1.428710 23.984400
279  2 -0.5850  7.421230 13.297000 11.281100
280  2 -0.6657  7.613370 13.780100 23.715400
281  2 -0.5999 11.857400  1.514980 11.432600
282  2 -0.6259 11.556000  1.828030 24.103600
283  2 -0.5269 11.461300 13.226600 11.469800
284  2 -0.6310 11.647400 13.457000 23.795700
285  2 -0.6373 15.789700  1.590850 11.968000
286  2 -0.6989 15.819300  2.043390 24.031900
287  2 -0.5637 15.957800 13.187100 11.958400
288  2 -0.6043 15.763200 13.808400 23.536700
289  2 -0.5792  3.382760  4.240800  5.286670
290  2 -0.6407  3.132980  3.798230 17.725000
291  2 -0.6547  2.996230 16.175400  5.697360
292  2 -0.5570  3.142880 16.008700 17.469300
293  2 -0.6477  7.148070  4.419820  5.651850
294  2 -0.6447  6.803470  4.019820 17.770900
295  2 -0.5902  7.342410 15.785300  5.311230
296  2 -0.6284  7.512440 16.026100 17.849000
297  2 -0.5474 11.698800  4.752690  5.972490
298  2 -0.6406 11.349200  3.997420 17.592100
299  2 -0.5584 12.000600 15.777600  5.197200
300  2 -0.5813 11.788300 16.000100 17.484900
301  2 -0.5794 15.795300  4.634400  5.094320
302  2 -0.6449 16.066300  4.304770 17.432400
303  2 -0.6964 15.910500 15.805500  5.784250
304  2 -0.6244 16.009100 16.370100 17.530700
305  2 -0.6177  1.044490  7.497560  6.637200
306  2 -0.6035  1.505260  7.354090 18.920000
307  2 -0.6162  1.182430 19.413100  7.313260
308  2 -0.6612  0.989799 19.297000 19.694100
309  2 -0.6104  4.745170  7.856020  7.107400
310  2 -0.6120  5.111370  7.311380 19.587700
311  2 -0.6380  5.313400 19.025100  7.376870
312  2 -0.6193  5.096100 19.335900 19.443900
313  2 -0.7333  9.202930  8.052350  7.045080
314  2 -0.6838  9.514430  7.537580 19.555400
315  2 -0.6304  9.499930 19.516300  7.009390
316  2 -0.5570  9.709680 19.371000 19.510200
317  2 -0.5122 14.186000  7.672950  6.538720
318  2 -0.6223 13.830000  7.731110 19.845200
319  2 -0.5709 14.167800 19.410500  7.277960
320  2 -0.5714 13.756500 19.209200 19.233300

