Generated by pymatgen.io.lammps.data.LammpsData

504  atoms

  2  atom types

0.000000 17.774667  xlo xhi
0.000000 21.986255  ylo yhi
0.000000 41.650458  zlo zhi

Masses

1  208.9804
2   78.9600

Atoms

1    1  0.8352 15.692500 14.511200 11.801700
2    1  0.8004  1.206570 18.785800 11.154800
3    1  0.6841 15.396900  7.594720 10.968100
4    1  0.8956 -0.291817 10.898000 11.404500
5    1  0.1701  2.919930 13.834500  9.437580
6    1  0.7503  5.097340 18.743400 11.219700
7    1  0.7925 16.685800  0.316269 10.657300
8    1  0.7226  0.934065  3.418240 10.644100
9    1  0.7083  1.853290  7.952170 10.731900
10   1  0.4726  3.718810 11.826600 11.422100
11   1  0.4192  6.483690 13.821500  9.975810
12   1  0.8437  9.637630 19.143400 10.915000
13   1  0.8854  2.908270 22.230500 11.004300
14   1  0.7645  4.722060  3.968390 11.034900
15   1  0.8466  6.943440  8.173310 11.505100
16   1  0.7071  9.385120 11.269100 11.387800
17   1  0.8003 11.403500 14.507000 10.688500
18   1  0.7328 14.399000 18.620200 10.001500
19   1  0.6607  7.145540 22.010100 11.407700
20   1  0.5057  9.997270  4.491490 11.071900
21   1  0.8001 11.238500  8.088960 11.819900
22   1  0.5565 11.631900 10.371100  8.832530
23   1  0.3542  9.897680  1.628770 10.319600
24   1  0.6104 13.496000  2.947000 11.115000
25   1  0.8386  1.228580 13.759300  1.381850
26   1  0.7543  3.249310 16.945000  1.420380
27   1  0.7017  0.798968  6.726470  2.019610
28   1  0.8630  3.167550 10.750600  1.443990
29   1  0.8097  5.806230 13.388700  1.494390
30   1  0.7694  7.544460 17.571300  1.952200
31   1  0.7369  1.411700 20.179700  2.500900
32   1  0.8683  3.339550  3.083510  0.824842
33   1  0.7793  5.332950  6.827250  1.625810
34   1  0.6984  7.988680 10.017000  0.883847
35   1  0.7177  9.683550 13.497800  1.827030
36   1  0.7922 12.208300 18.250100  2.402810
37   1  0.7537  5.504000 21.508300  1.774470
38   1  0.7082  7.932800  2.255440  1.552270
39   1  0.7616  9.633680  6.354610  2.129390
40   1  0.8990 12.662500 10.233600  1.458290
41   1  0.6639 15.461000 13.597400  2.386720
42   1  0.7313 16.406700 17.085100  1.307570
43   1  0.7032  9.487100 21.375800  2.217150
44   1  0.7694 12.892400  3.178890  2.427170
45   1  0.8085 14.617400  6.382520  1.994850
46   1  0.7976 16.571000  9.778390  1.991180
47   1  0.7541 15.317900 20.484100  3.020350
48   1  0.6918 17.255500  2.952390  1.878150
49   1  0.1341  2.338970 12.380800  6.125420
50   1  0.0153  4.633860 14.521200  7.072610
51   1  0.3208  3.428920  7.223420  5.495120
52   1  0.2531  1.825650  9.600280  7.328290
53   1  0.0949  4.856150 11.462800  8.397500
54   1  0.3646  4.989350 17.510800  5.955670
55   1  0.7041  1.692860 21.434200  7.351430
56   1  0.3032 16.262600  3.705960  7.757370
57   1  0.4559  4.621650  5.821190  7.474610
58   1  0.5568 10.021300 10.780000  5.517080
59   1  0.5949 11.608000 15.441600  7.194370
60   1  0.4124 14.033400 20.271400  7.032250
61   1  0.2813  5.845310 22.114200  5.528760
62   1  0.4243  8.182140  3.806000  8.494720
63   1  0.5616 11.840300  6.842360  6.080760
64   1  0.2867 14.882600 12.239600  5.249460
65   1  0.1829 -0.302459 14.262000  5.659440
66   1  0.4638  9.782410 19.214500  5.109170
67   1  0.4840  4.633750 20.322300  7.441340
68   1  0.2719  8.642850  0.254373  5.118670
69   1  0.2992 15.686800  9.346630  5.796580
70   1  0.2268 15.098300  5.848590  5.683960
71   1  0.5341 12.187200  0.466507  5.708630
72   1  0.3508 10.842400 21.088200  8.266380
73   1  0.2676  4.684200 10.044900  5.649490
74   1  0.2444  2.253470 15.834900  7.896280
75   1  0.1699  5.838600  3.117080  6.446580
76   1  0.4119  7.311040 15.273400  5.020120
77   1  0.3483 13.895000 12.680800  7.870270
78   1  0.1931  7.691000  0.665573  7.902700
79   1  0.3925  2.900830 15.490700  4.755730
80   1  0.4329  2.577720  2.927000  7.336970
81   1  0.4942  7.776510  8.018310  5.190860
82   1  0.3213  7.665800 10.102400  7.940620
83   1  0.2055  7.559800 13.103000  7.131980
84   1  0.1884 14.339700 15.167600  5.845470
85   1  0.5425  3.139900  1.776530  4.640800
86   1  0.5196  8.545020  4.169250  5.311440
87   1  0.3099 13.718000  4.961670  8.026990
88   1  0.2231 17.073800 11.736700  7.048730
89   1  0.3587 16.280700 14.650100  8.264050
90   1  0.3503 16.596300 17.213600  6.703800
91   1  0.4755  8.588370 17.543600  6.796150
92   1  0.4657 13.581700  3.167430  5.850100
93   1  0.2423  0.322224  6.338060  5.654560
94   1  0.3364 16.997700  6.451120  8.542860
95   1  0.5343 16.118300  0.317168  6.828650
96   1  0.4540 -0.294996  2.637130  5.203120
97   1  0.8492  1.590840 12.998500 25.760500
98   1  0.7294  3.800490 17.169200 25.643200
99   1  0.7698  2.180910  5.968510 25.763000
100  1  0.7522  4.163380  9.335720 26.294100
101  1  0.7416  6.798170 13.383900 26.096100
102  1  0.8208  8.776650 16.983600 26.633600
103  1  0.8097  2.100040 20.699700 25.647100
104  1  0.8054  4.480190  2.761340 25.718900
105  1  0.7896  6.319340  5.940620 26.221700
106  1  0.7920  8.644660  9.282490 26.179600
107  1  0.7816 10.978200 13.398700 25.717800
108  1  0.7724 13.250000 17.082900 26.024200
109  1  0.7491  5.769510 20.715500 25.380400
110  1  0.6643  8.588560  2.501300 25.505300
111  1  0.7175 10.363900  6.129710 26.322400
112  1  0.8418 13.213200  9.545330 25.092200
113  1  0.7840 15.170800 13.782800 25.052800
114  1  0.8279 17.222500 16.808500 25.471200
115  1  0.8088 10.624500 20.725300 25.385700
116  1  0.7062 13.166700  2.386600 25.266000
117  1  0.7750 15.702500  5.729790 25.522100
118  1  0.7940 17.363700  9.672070 24.361800
119  1  0.8550 15.039700 20.786600 25.416500
120  1  0.9390 -0.039482  2.044090 25.726000
121  1  0.8556  0.932745 15.706800 13.884200
122  1  0.7406  2.748040 19.221200 14.555500
123  1  0.6394 17.489600  8.592490 15.384300
124  1  0.8460  1.546590 11.953400 15.613600
125  1  0.7565  5.114160 16.075100 14.720800
126  1  0.8353  7.387650 19.552200 14.578200
127  1  0.7569  0.488308  1.844660 14.220600
128  1  0.7307  2.116060  4.811520 14.172900
129  1  0.8645  4.137030  8.343220 14.600100
130  1  0.8162  6.089790 12.421800 16.621900
131  1  0.6607  9.012630 16.290300 14.629900
132  1  0.8114 11.295400 20.501900 14.409700
133  1  0.9501  4.577780  1.571780 14.473100
134  1  0.8833  6.612030  5.241030 14.115700
135  1  0.7404  8.996190  8.145710 15.206000
136  1  0.5630 10.929200 13.033700 15.058400
137  1  0.6321 13.177100 16.581700 14.618100
138  1  0.7950 16.034600 19.628300 13.164600
139  1  0.8639  8.758080  1.887070 14.131300
140  1  0.7096 11.210300  5.007790 14.928800
141  1  0.8254 13.684700  8.805700 15.040100
142  1  0.7672 15.054600 12.734000 14.555200
143  1  0.7567 13.752300  1.500750 14.852300
144  1  0.6500 15.991000  4.309110 14.268700
145  1  0.4280  2.201390  9.278960 21.732200
146  1  0.1281  4.101830 21.227500 20.075200
147  1  0.1995  2.338640  4.922880 18.896200
148  1  0.3059  1.236440  8.765360 18.085000
149  1  0.3295  4.782210 14.716100 20.503200
150  1  0.1442  5.738800 18.338000 20.383500
151  1  0.1048  1.244870 21.339700 19.992300
152  1  0.0995  6.268900  1.229630 20.249100
153  1  0.1315  7.591560  5.950820 20.150300
154  1  0.5514  8.311150 11.217100 22.915900
155  1  0.2448  8.494990 12.191400 19.844100
156  1  0.0412 12.982300 16.352000 18.062300
157  1  0.2067  7.301600 20.592500 21.033400
158  1  0.3157  5.983660  3.585900 18.222500
159  1  0.0827  8.921590  3.327100 19.366100
160  1  0.5245 11.859800 10.095100 18.811600
161  1  0.2529 13.316700 12.938500 18.127400
162  1  0.2493  0.902285 18.756700 18.396700
163  1  0.1108 14.082400 20.016100 19.942600
164  1  0.3025 15.074300  3.612840 20.266800
165  1  0.2811  0.275194 12.935800 19.200300
166  1  0.0881 15.287200 14.159900 19.771400
167  1  0.1139 16.924400 19.434400 20.842800
168  1  0.2871 -0.012101  3.989670 21.163600
169  1  0.0519  2.986780 16.840400 19.779300
170  1  0.2779  8.437630 22.004900 18.503400
171  1  0.4391 17.677900 12.941600 21.900400
172  1  0.3320  2.484780 16.045400 22.331500
173  1  0.1289  2.661310 19.080200 21.516200
174  1  0.1443 10.977600 17.266700 20.280600
175  1  0.1879  3.017540  2.188120 19.552500
176  1  0.2115  4.686310  4.668580 20.977200
177  1  0.1956  3.579460  7.384780 19.863900
178  1  0.3669  8.294940 16.881300 18.455200
179  1  0.2068 13.656100 16.127800 21.177100
180  1  0.1274 13.030900  1.305320 19.694800
181  1  0.1414 10.785100 20.040100 19.721000
182  1  0.2716  8.410200  8.903660 19.815000
183  1  0.3412  9.586610  4.026750 22.440000
184  1  0.0617 10.413000 14.313400 18.643200
185  1  0.1142 15.615500 17.117200 19.021700
186  1  0.2069 16.717500  0.623277 21.148400
187  1  0.1238 10.291100  0.874315 21.082200
188  1  0.3427 10.328900  6.324180 19.838900
189  1  0.2467 12.094600 12.808100 21.057700
190  1  0.0735  0.158102 15.713900 20.013200
191  1  0.2958 16.114500  0.594448 18.197400
192  1  0.1329  0.486557  6.905430 20.047900
193  1  0.7406  1.486850 15.548500 38.658800
194  1  0.7284  2.808340 19.329300 39.557500
195  1  0.6788  0.402706  9.272800 40.252800
196  1  0.7025  3.564320 12.538700 38.833600
197  1  0.7457  5.573700 15.680400 39.857000
198  1  0.8275  7.358400 19.312200 40.406300
199  1  0.8006  1.119180  1.586830 39.824300
200  1  0.6468  4.363930  5.782860 39.421500
201  1  0.6367  5.494190  9.384850 39.208900
202  1  0.6115  7.791550 12.652400 39.684700
203  1  0.5517  9.764790 15.734800 40.226700
204  1  0.7494 12.797200 19.937900 40.179000
205  1  0.8554  5.540780  0.814502 40.256000
206  1  0.7462  8.172950  4.775820 39.996500
207  1  0.6003 10.025200  8.646270 39.831600
208  1  0.8748 12.335100 12.491600 40.497600
209  1  0.7162 13.089800 16.423200 40.313000
210  1  0.8382 16.750500 19.777200 40.149800
211  1  0.7539 10.238200  1.258850 40.380900
212  1  0.7864 11.840200  4.946490 40.395800
213  1  0.9234 14.187000  8.490020 40.173300
214  1  0.9591 16.699600 12.661400 40.099500
215  1  0.8576 14.580800  1.682000 40.953100
216  1  0.7563 16.535300  5.794790 39.767800
217  1  0.8171 17.168600 14.605900 28.916600
218  1  0.7332  1.904290 17.691700 29.252400
219  1  0.8188  0.183507  7.009550 28.726400
220  1  0.7289  0.537508 11.318900 29.917600
221  1  0.8193  4.002760 14.377900 28.500500
222  1  0.7814  6.124130 18.281700 29.095700
223  1  0.8525 -0.275382 21.683800 28.906400
224  1  0.7969  2.163000  3.268370 29.793900
225  1  0.5779  4.443690  7.450510 29.784700
226  1  0.6192  6.392090 10.833000 29.902200
227  1  0.7122  8.596230 14.834900 29.610200
228  1  0.7859 11.150800 18.220000 29.527300
229  1  0.7850  4.101380 21.797400 28.903400
230  1  0.8344  6.430540  3.073290 29.342400
231  1  0.6917  9.049020  7.924750 29.810600
232  1  0.8306 11.320100 11.022200 29.050200
233  1  0.8057 13.098500 14.338400 29.176200
234  1  0.8138 15.412400 18.515400 29.375100
235  1  0.9282  9.105870 21.868600 29.119900
236  1  0.8131 11.093200  3.331020 28.699800
237  1  0.8042 13.165400  7.086120 29.055300
238  1  0.8370 15.062700 10.666900 28.607700
239  1  0.8282 13.519900 -0.333806 28.901700
240  1  0.7869 15.321100  3.813370 28.730200
241  1  0.1699  6.954710 16.714300 34.265500
242  1  0.0976  6.789420  1.077950 34.117800
243  1  0.0247  1.054350  5.959480 34.685300
244  1  0.6083  0.880143 15.590500 32.972300
245  1  0.1217  9.028020 15.213100 35.850200
246  1  0.3525 10.572500 17.183300 37.539300
247  1  0.0675  6.593860 19.337200 35.002100
248  1  0.2748  5.919500  3.139630 35.878000
249  1  0.1484  2.771970  7.621680 36.070300
250  1  0.1489 10.729100 13.393000 33.672200
251  1  0.0541 11.894600 15.959800 35.333200
252  1  0.2410 13.837100 17.621600 33.836400
253  1  0.1662  9.205240 21.221800 33.687500
254  1  0.7189  8.573890  5.810630 32.586200
255  1  0.2860 11.545400  9.019100 34.225900
256  1  0.1671 13.275200 11.134400 35.442600
257  1  0.1343 13.448800 13.892800 34.103600
258  1  0.1794  4.708890 20.813800 33.064200
259  1  0.2171 10.863900 21.606500 35.918200
260  1  0.3801 12.702600  6.224230 34.695900
261  1  0.1277 16.870200  7.641260 36.267400
262  1  0.0475 16.245000 10.459000 34.961500
263  1  0.1655  1.660210 21.842100 34.030500
264  1  0.2232  3.778100  2.515300 33.481400
265  1  0.1796 16.095300 13.246300 34.559400
266  1  0.3568 17.042300 19.580800 34.705300
267  1  0.2024  1.430880  8.864430 33.427300
268  1  0.4077  1.763300 12.769800 34.598200
269  1  0.2334  3.638540 18.913100 35.169100
270  1  0.3489  4.998920 17.918200 32.690900
271  1  0.1368  4.414860 21.773200 35.767600
272  1  0.2039  2.879470  3.954590 36.406100
273  1  0.4499  8.072730 10.653800 33.722500
274  1  0.2478  7.731610 13.678600 33.945000
275  1  0.1424  9.831360 16.719300 33.373600
276  1  0.0791 11.192400 19.171800 34.472900
277  1  0.2480  4.489430  5.852050 34.280600
278  1  0.3182  7.309170 21.911900 36.692400
279  1  0.3483  4.628190  8.958050 34.050200
280  1  0.5066 10.344100  9.619940 37.029400
281  1  0.3716 15.219600 15.696700 36.006700
282  1  0.2381 13.875600 20.505800 34.761400
283  1  0.3427  9.549280  2.143100 34.804500
284  1  0.2538 16.596000  0.604412 34.686200
285  1  0.0771 14.534100  8.340910 35.414800
286  1  0.3936 15.821900  8.374880 32.633800
287  1  0.1434  0.648699  3.027320 34.294800
288  1  0.2074 15.837400  5.425500 34.352300
289  2 -0.6789 16.219800 14.592400  0.217702
290  2 -0.7634  1.444570 18.439300 41.645900
291  2 -0.8350 16.192600  7.735020  0.260579
292  2 -0.7836  1.004700 11.734300 -0.267559
293  2 -0.7398  3.401570 14.605100 41.102600
294  2 -0.7246  5.463600 18.473600 42.028600
295  2 -0.6254 16.787700  0.012444  0.237958
296  2 -0.6701  1.129450  4.020920 -0.026542
297  2 -0.6424  3.684220  8.222420 41.401000
298  2 -0.7827  5.403650 11.639700 40.886700
299  2 -0.8657  7.593800 14.835700 -0.203989
300  2 -0.7049  9.668890 18.853700  0.996619
301  2 -0.6423  2.902390 22.363900  0.256841
302  2 -0.6632  5.652450  3.617460 -0.575434
303  2 -0.8194  8.063110  7.522600 41.729600
304  2 -0.8089 10.173700 11.036500 41.610200
305  2 -0.7361 12.072500 14.917300  0.614077
306  2 -0.7310 14.768500 19.039900  0.634465
307  2 -0.8196  8.052480  0.215397  0.025779
308  2 -0.8325  9.812740  3.807820  0.157955
309  2 -0.6834 12.640300  7.689260  0.427715
310  2 -0.6951 14.929700 11.300200  0.868456
311  2 -0.5939 12.884200  0.250649  0.770283
312  2 -0.7591 14.292200  3.966580  0.231990
313  2 -0.8153  0.747420 15.984400  2.806210
314  2 -0.6489  3.654300 21.001600  4.037520
315  2 -0.7033  1.814390  8.988550  3.018940
316  2 -0.7010  3.611040 12.835900  3.221570
317  2 -0.7913  5.650380 15.892100  2.941080
318  2 -0.9005  7.467460 19.929000  3.778750
319  2 -0.7755  0.943902 22.586900  4.474820
320  2 -0.6867  2.801820  4.863960  3.117330
321  2 -0.6747  5.589070  9.330460  2.924540
322  2 -0.7283  7.958100 12.375400  3.927370
323  2 -0.6480 10.673800 16.383200  3.662350
324  2 -0.6767 12.043300 20.597600  3.761800
325  2 -0.8054  5.314040  1.866310  2.725330
326  2 -0.7404  6.704760  5.254860  3.537450
327  2 -0.5490 10.541200  8.710190  3.347690
328  2 -0.6359 11.861500 11.776800  4.067040
329  2 -0.7547 14.352400 18.301700  4.260110
330  2 -0.5932  1.166470 19.058400  5.732000
331  2 -0.7040 10.697900  2.068430  3.771030
332  2 -0.6550 12.081900  5.664200  3.392230
333  2 -0.7251 14.335900  8.822780  3.400710
334  2 -0.8795 -0.584160 12.205200  3.750700
335  2 -0.7998 14.628400  1.148380  4.444810
336  2 -1.0004 16.647900  4.763530  3.731130
337  2 -0.6569  0.417273 16.228700 10.693000
338  2 -0.7166  2.460370 19.569500  9.202410
339  2 -0.8587 17.377400  9.260310  9.270360
340  2 -0.8369 -0.526643 12.761600  9.928270
341  2 -0.6711  5.857410 17.515900  8.804410
342  2 -0.8526  8.430510 20.016200  8.768760
343  2 -0.9308  1.294300  1.287320  8.956270
344  2 -0.9048  2.009270  5.100810  8.712590
345  2 -0.6807  4.236660  8.329050  9.599920
346  2 -0.7562  6.736050 10.893800 10.910900
347  2 -0.4505  9.398000 16.293100  9.183510
348  2 -0.6321 11.956400 18.189800  8.661400
349  2 -0.8876  5.333220  1.371970  9.623140
350  2 -0.6268  6.550800  5.743860  9.453880
351  2 -0.7051  9.413240  8.713900 10.200400
352  2 -0.8533 10.570500 13.232800  8.017310
353  2 -0.6943 13.903300 15.682300  9.509240
354  2 -0.7335 16.670400 19.847400  9.299120
355  2 -0.8412 11.119100  3.122350  7.205040
356  2 -0.6732  9.138480  6.386990  7.067430
357  2 -0.7656 12.706300  7.917360  9.276210
358  2 -0.5706 13.569200 11.991200 10.464200
359  2 -0.8373 14.879100  1.568970  8.768550
360  2 -0.7871 16.246600  4.224930 10.730400
361  2 -0.6203 17.698100 12.992400 13.668100
362  2 -0.7337  3.106190 16.713200 12.535000
363  2 -0.6381  0.007890  6.939810 13.147100
364  2 -0.6413  1.577430 10.033400 13.442400
365  2 -0.4419  4.901750 12.707500 14.301700
366  2 -0.6528  7.172270 17.545100 12.694900
367  2 -0.7347  1.010070 21.150000 12.521200
368  2 -0.8390  2.697280  2.248330 12.645500
369  2 -0.6441  4.325150  6.534330 12.519900
370  2 -0.4271  6.588370  9.773410 14.484200
371  2 -0.5521  8.645110 13.849200 12.131800
372  2 -0.4909 11.981600 17.470000 12.186100
373  2 -0.7608  4.674400 21.253300 12.500800
374  2 -0.7870  6.389660  3.017860 12.760600
375  2 -0.7854  9.133940  6.487030 12.927000
376  2 -0.6163 11.259600 10.009700 13.702400
377  2 -0.7368 13.106600 14.371600 13.315500
378  2 -0.5743 15.364200 17.165800 12.985500
379  2 -0.8112  9.113130 20.906300 12.677300
380  2 -0.7946 10.872800  2.030000 12.646600
381  2 -0.6952 13.400300  6.437070 13.039000
382  2 -0.5885 15.729400  9.784530 13.030500
383  2 -0.5405 13.686200 21.070300 11.717700
384  2 -0.6934 15.654800  1.458870 12.836300
385  2 -0.5347 16.259900 15.531300 15.965500
386  2 -0.5990  0.727878 17.856600 15.194400
387  2 -0.5268 12.401100  8.253750 20.509300
388  2 -0.7437 16.830200 11.622000 16.967600
389  2 -0.5859  2.744440 14.384800 16.325800
390  2 -0.7144  5.516270 18.006300 16.426000
391  2 -0.5421 17.394600 21.745000 15.913300
392  2 -0.7061 -0.340978  3.759720 16.776400
393  2 -0.7268  2.258270  6.747140 15.859700
394  2 -0.6061  3.383360 10.543900 16.546600
395  2 -0.7642  7.731770 14.915400 16.870000
396  2 -0.8127  9.422540 18.640900 15.810500
397  2 -0.5726  3.093380 22.207100 15.901000
398  2 -0.6294  4.455730  3.967990 15.956000
399  2 -0.6427  6.676520  6.797140 16.203100
400  2 -0.5956  5.253990 11.246800 20.279700
401  2 -0.6531  9.083010 11.189200 16.679600
402  2 -0.6130 13.750500 20.175500 15.368400
403  2 -0.5925  6.950250 22.258200 15.808200
404  2 -0.6846  8.531880  4.158300 15.474100
405  2 -0.5689 12.175900  7.339690 16.747800
406  2 -0.7387 13.095500 11.061300 16.364300
407  2 -0.5888 10.579000  0.913720 16.062600
408  2 -0.6454 13.718600  3.769300 16.187600
409  2 -0.7747  0.140841 14.466200 23.924300
410  2 -0.7602  1.643650 18.234900 24.588600
411  2 -0.6548  0.367363  6.502780 23.812100
412  2 -0.7001  1.465240 11.037700 23.599900
413  2 -0.5632  3.730560 14.049200 24.211200
414  2 -0.5955  6.660770 18.224900 24.526900
415  2 -0.6097 18.040000 21.900000 24.114800
416  2 -0.5191  1.704030  3.151410 24.167000
417  2 -0.5542  4.626740  7.196130 24.224300
418  2 -0.5807  6.185820 10.823400 25.070800
419  2 -0.5858  8.544280 14.755300 24.294300
420  2 -0.4809 10.703500 17.771400 24.408900
421  2 -0.6074  4.063210  0.424959 23.848800
422  2 -0.6975  6.298800  3.576660 23.973000
423  2 -0.5856  8.101460  7.303960 24.174200
424  2 -0.6745 10.533700 10.686700 24.320800
425  2 -0.6934 12.910000 14.384600 23.625400
426  2 -0.6194 14.759000 18.353500 24.068700
427  2 -0.6654  8.247420 21.980300 24.033500
428  2 -0.6263 11.462900  4.973530 24.118800
429  2 -0.4136 14.621500  7.582200 23.729900
430  2 -0.5932 14.943700 11.201400 23.479600
431  2 -0.6925 12.923100 21.608200 24.073000
432  2 -0.6520 15.566600  2.795480 24.228700
433  2 -0.7401  1.683610 15.528700 27.129000
434  2 -0.8487  3.888180 19.174300 27.544500
435  2 -0.6707  1.175190  8.643390 26.634100
436  2 -0.6328  3.580280 11.467500 28.252500
437  2 -0.7564  6.454200 15.714100 27.853200
438  2 -0.6410  8.584220 19.281700 27.767600
439  2 -0.7242  2.134140  1.400580 27.398900
440  2 -0.8077  4.317660  4.805530 27.548600
441  2 -0.8309  6.656730  8.206160 27.954600
442  2 -0.7385  8.902180 11.931100 27.618200
443  2 -0.7853 10.849800 15.491100 28.090600
444  2 -0.8340 13.541000 19.520500 27.439500
445  2 -0.6515  6.874230  0.606684 27.499400
446  2 -0.7485  8.349650  4.502140 27.998100
447  2 -0.8169 10.867200  8.474570 27.842200
448  2 -0.7458 12.892600 11.834100 27.143700
449  2 -0.8261 15.351000 15.788500 27.214400
450  2 -0.6810 -0.087989 19.482400 27.477800
451  2 -0.7804 10.804100  0.925752 27.108000
452  2 -0.8266 12.809800  4.815740 27.235600
453  2 -0.6585 15.508500  8.483610 26.999300
454  2 -0.6934 16.715700 12.267500 26.908600
455  2 -0.7760 15.423500  0.905625 27.250700
456  2 -0.7538 -0.084981  4.399320 27.130400
457  2 -0.5784  1.608270 13.841400 30.412500
458  2 -0.6062  4.345760 16.312100 30.575700
459  2 -0.6753  1.637470  6.028660 30.814300
460  2 -0.5716  2.977070 11.355800 32.126500
461  2 -0.5539  6.182630 13.738200 30.704700
462  2 -0.6674  8.399750 18.045800 30.762000
463  2 -0.6559  1.724560 21.021300 30.564700
464  2 -0.6807  4.432010  1.721110 30.652600
465  2 -0.6656  5.882040  4.592170 32.056900
466  2 -0.7415  7.337700  8.435850 31.911000
467  2 -0.7630 11.052600 12.850700 30.740500
468  2 -0.7093 13.158900 17.068100 30.670900
469  2 -0.5715  6.741860 21.445900 30.621700
470  2 -0.5360  9.330900  2.473550 30.361000
471  2 -0.6122 11.116100  6.022300 30.679600
472  2 -0.6882 13.421700  9.315530 30.652900
473  2 -0.7090 15.537500 13.094100 30.423800
474  2 -0.6774 17.113500 16.994600 30.907900
475  2 -0.6248 11.072700 20.812000 30.611700
476  2 -0.4735 13.379500  2.264360 30.515200
477  2 -0.5627 15.444900  6.100450 30.652100
478  2 -0.6720 17.249200  8.906660 30.449800
479  2 -0.6090 15.424000 20.990300 30.897800
480  2 -0.5355 17.440800  2.293390 30.433700
481  2 -0.7238  0.499914 13.312600 38.008400
482  2 -0.7829  0.955098 17.173600 35.041700
483  2 -0.7822  1.765960  6.636890 38.761600
484  2 -0.6375  5.986820 11.239000 37.101600
485  2 -0.6355  4.082070 14.643500 37.317200
486  2 -0.7215  7.124500 17.469100 38.310000
487  2 -0.6992  1.066110 20.926900 38.677600
488  2 -0.7052  4.093430  2.215510 38.350900
489  2 -0.5960  7.086130  7.218190 38.031400
490  2 -0.6597  9.015970  8.401580 35.075400
491  2 -0.7496 10.600400 12.774200 38.291000
492  2 -0.7640 13.292200 17.957700 38.113700
493  2 -0.7183  5.454560 20.796100 38.686400
494  2 -0.6418  8.138620  2.257730 38.614900
495  2 -0.5279 10.251600  4.877030 35.534400
496  2 -0.6663 12.717100 10.249700 39.249600
497  2 -0.5305 13.850100 14.098600 38.944500
498  2 -0.4519 16.642700 16.465400 39.447000
499  2 -0.6868 10.206300 19.954800 38.872000
500  2 -0.5334 12.341600  3.041510 38.807700
501  2 -0.7219 13.765700  6.572900 38.704000
502  2 -0.6782 15.888200 10.338100 39.019900
503  2 -0.5855 15.043900 21.184500 38.749800
504  2 -0.5608 16.565800  3.165830 39.023200

