Generated by pymatgen.io.lammps.data.LammpsData

320  atoms

  2  atom types

0.000000 16.864293  xlo xhi
0.000000 23.165087  ylo yhi
0.000000 24.472453  zlo zhi

Masses

1  208.9804
2   78.9600

Atoms

1    1  0.8662  9.811420 10.222000  3.535270
2    1  0.7811  9.882310  7.657520 24.056700
3    1  0.7146 15.345400  6.035300 18.572600
4    1  0.7286  1.732460  6.801640 15.865600
5    1  0.8519  5.225330 12.693300 13.467400
6    1  0.6990  4.139620 12.995500 18.630300
7    1  0.6256  2.557890 18.679500 12.957300
8    1  0.7381  4.229660  6.923920 18.287100
9    1  0.6506 10.828800 10.118000 10.212200
10   1  0.8007  4.014460 12.251100 22.658800
11   1  0.7987 11.883400  0.768745  9.606560
12   1  0.7644 15.081900 22.029400  0.267135
13   1  0.8459 14.548700 10.822900  3.724280
14   1  0.6522  3.365340  6.039850 21.748700
15   1  0.7685  1.547960  0.045602 15.933900
16   1  0.7488 15.977400  2.867780 24.001600
17   1  0.7337  3.472670 19.442000  4.268790
18   1  0.6629 13.017300  8.574890  7.522960
19   1  0.7200  1.582910  5.731930  1.096900
20   1  0.5359  5.884220  3.449670 10.293200
21   1  0.6870  8.949490  2.851730 14.381000
22   1  0.6831  0.228295  2.638060 20.537600
23   1  0.6669 11.365900  6.912280  3.071720
24   1  0.6898  7.573330 12.477700  9.970700
25   1  0.6878  7.540710  0.487671 11.774200
26   1  0.7982 16.307300 23.350400 12.905400
27   1  0.8294  8.873970 14.046100  6.272930
28   1  0.5062  3.997560  9.319000 16.268200
29   1  0.6758  1.476420  9.016270 18.643200
30   1  0.7208 10.121000 21.298600 14.132400
31   1  0.8196 15.426200  6.593360  4.176840
32   1  0.6600  0.115835  2.209840  5.640220
33   1  0.7518 15.877700 12.441500  7.156500
34   1  0.7293  3.464370  0.585121 21.288800
35   1  0.7875 14.798200 17.127000 10.173000
36   1  0.6422  2.500490 21.274600 23.597000
37   1  0.6919  3.306030  1.318320  6.462230
38   1  0.6260  6.249690  9.164680 22.210700
39   1  0.6615  5.204800 20.049400 12.355400
40   1  0.5803  7.163760 21.825000  4.793540
41   1  0.6575 12.033900 19.050700 10.713600
42   1  0.8171 16.845400  6.930090 12.604300
43   1  0.7327  8.175740 20.078500 21.090100
44   1  0.7007  6.745930 15.141100 20.736400
45   1  0.7244  1.707140  8.425600  5.993500
46   1  0.7241 12.906000  3.290080 19.517400
47   1  0.8930  3.023450 23.398600 10.465700
48   1  0.8567 12.873300  9.251540 13.626100
49   1  0.7535 12.389100 12.061400  7.226170
50   1  0.8128 15.008400  4.173970  9.811180
51   1  0.5890  9.730520  0.477790  4.223710
52   1  0.6858  7.748250 15.266600 17.310200
53   1  0.7304  5.327340  7.382990  6.034690
54   1  0.7932  7.843450  6.171140 12.284400
55   1  0.7583  0.915354 14.011600  3.717650
56   1  0.7000  3.929140 17.162100 18.703300
57   1  0.7784  8.280440 10.480900 12.808200
58   1  0.7681  3.025250  9.654040 12.619800
59   1  0.6911 11.337100 19.364200  1.100150
60   1  0.6601  6.206310 18.054400 15.320300
61   1  0.7395  3.580130  4.553600  3.724730
62   1  0.7325  8.553540  6.438230 15.619700
63   1  0.8322  1.478980 10.170800  2.026730
64   1  0.8448  5.787800  0.306638  0.376330
65   1  0.7588  2.844730  6.232550  9.696500
66   1  0.7840 11.839400  2.814280  2.389310
67   1  0.6720  7.605520 16.323200  3.364210
68   1  0.7956  7.799090 10.084400 17.945200
69   1  0.6821  5.970030 22.470800 14.502600
70   1  0.7957  1.646600 22.430000  2.986180
71   1  0.2641  9.592090 22.076600  6.761660
72   1  0.7189  4.944600 18.816400 23.469900
73   1  0.9707  4.484170  3.106570 17.568400
74   1  0.8281  4.603330  1.377820  2.823860
75   1  0.6659  8.984730 15.933200  0.503841
76   1  0.8977  4.060110 19.906700  7.777240
77   1  0.5436 12.479000  1.739340 22.753200
78   1  0.6375  7.229710  0.609323 21.333100
79   1  0.7857 10.919400 16.603500  8.358850
80   1  0.7879  6.602630  9.195290  9.442150
81   1  0.5769  5.725440  3.876040  7.425220
82   1  0.7874  9.222420  4.552780 18.674100
83   1  0.7247 16.545500 22.968200  8.470620
84   1  0.6328  4.717910  5.059280 12.461900
85   1  0.8690  5.930760 11.214100  2.918320
86   1  0.5934  4.614470  8.417830 24.254100
87   1  0.5311  9.135990 21.301900  9.707340
88   1  0.7394  7.401830 20.072400  1.284150
89   1  0.7765  6.648870  6.630250  1.867330
90   1  0.8216 12.117000  4.175010 12.140900
91   1  0.8519 13.071200  3.757310  6.554640
92   1  0.7928 13.291000  2.348330 14.926100
93   1  0.7666 10.903700 13.802200 11.387200
94   1  0.7922  8.633150  3.574940 23.332400
95   1  0.7635  4.183430 15.404700  1.483940
96   1  0.6127  8.475680  0.326671 17.066500
97   1  0.6635 14.027800 20.900000  8.819610
98   1  0.5741 10.378900  0.873389 20.130700
99   1  0.6252  1.466330 15.814700  9.352720
100  1  0.6148  1.974110 18.033000  1.421130
101  1  0.7833  9.228360  5.226160  6.018920
102  1  0.5248  6.831950 23.150700  7.739750
103  1  0.5704  3.929460 17.103300 10.450900
104  1  0.5066  9.824880 21.269900 24.045300
105  1  0.7966 11.448700 17.564200  5.043740
106  1  0.7154 14.335900  6.242460  0.392707
107  1  0.7656  1.892090  3.102360 12.946100
108  1  0.7305 14.433800  0.627706  3.614550
109  1  0.8238 12.277400  5.868350 15.978700
110  1  0.6736 16.843400  6.277500 22.343800
111  1  0.7672 15.493000 16.275300  5.964510
112  1  0.7297  0.267585 19.634500 10.545900
113  1  0.7454  4.459800  4.422720 24.017500
114  1  0.6836  9.579700 17.684100 13.157200
115  1  0.7017  2.990760 11.873300  6.336920
116  1  0.8153  3.851060 12.256800 10.030300
117  1  0.7825 15.454900 19.311600  2.773770
118  1  0.8218  3.962670 20.853400 18.708900
119  1  0.5396  8.540120 19.500800  7.499140
120  1  0.5969  9.667490  8.572140  7.309290
121  1  0.7527  8.418790  2.788630  2.618250
122  1  0.7553 16.417200  2.921880 16.718500
123  1  0.7461  8.281880 11.477200 24.143800
124  1  0.8171  7.450420 16.362600 10.585900
125  1  0.7141 12.230400  4.993490 22.062200
126  1  0.7692  9.051470  4.370250  9.042490
127  1  0.6714  5.356290 15.678900  7.578080
128  1  0.7574 15.803500  9.875420  9.532650
129  2 -0.5846  1.229090  4.950390 11.200300
130  2 -0.0097 14.700700 16.816200 17.208500
131  2 -0.6587 11.293200 11.192800 12.470300
132  2 -0.6746  1.015580 13.968200  6.618070
133  2 -0.7941  7.791750  6.418100  8.125660
134  2 -0.6666  4.656170 22.058400  5.771740
135  2 -0.8125  5.467890 14.302600 10.713500
136  2 -0.5282  2.892190 16.613900 23.985000
137  2 -0.4913 10.746100  1.236310 13.065800
138  2 -0.5387 12.280400  7.307560 22.856200
139  2 -0.6507  2.040670  3.106100 16.146400
140  2 -0.1765 13.305800 19.375400 14.018300
141  2 -0.5048  6.990180  2.513090 18.805200
142  2 -0.6193  4.673520  6.129110 15.948900
143  2 -0.5098  9.648570 18.782200 22.733900
144  2 -0.0001 12.117300 16.555100 19.033500
145  2 -0.4664 11.014900  9.729110  1.130110
146  2 -0.3653  9.210460 13.830300 22.161100
147  2 -0.5543  6.734080 17.231100 18.949900
148  2 -0.5605 16.078100  3.621940 13.503600
149  2 -0.8729  1.865000  4.394250 23.036000
150  2 -0.7486 10.246200  5.175860 13.958600
151  2 -0.6682  5.814380  3.664700  1.988580
152  2 -0.2519  9.531990 12.578900 16.544300
153  2  0.0121 13.568600 10.635700 23.220600
154  2 -0.6799  3.271810  3.096810  8.952400
155  2 -0.5991 12.263200  3.717010  9.410540
156  2 -0.5016 10.549100  8.111980 15.306400
157  2 -0.4833 13.631600 12.716000  9.568320
158  2 -0.6924  6.558190 16.608000 12.945000
159  2 -0.5870  2.669110  0.693500 24.303400
160  2 -0.6941 12.299100 10.679000  4.914170
161  2 -0.2252 15.994200  9.319420 15.556400
162  2 -0.5158 14.911000 13.750600  4.668260
163  2 -0.5977  3.921100 20.092600 15.472200
164  2 -0.0504 11.909500 15.762900 23.004100
165  2 -0.4906  0.309887 18.817500  4.751860
166  2 -0.6205  5.489100  9.228230 19.398100
167  2 -0.1961  0.763200 17.845700 15.741800
168  2  0.0907 13.558600 19.122000 18.885600
169  2 -0.4902  4.723900  8.947170  3.662560
170  2 -0.0262 12.365200 18.854400 21.777300
171  2 -0.7186 10.294800  4.999060  0.839141
172  2  0.0185 15.657700 11.478200 20.981400
173  2 -0.1056 15.531600 11.123200 18.806100
174  2 -0.1604  1.164320 12.675500 23.519500
175  2 -0.6237  4.617030 15.270200 16.510100
176  2 -0.0836 14.613300 17.530100 13.590200
177  2 -0.5350 15.499700  0.289328 22.570100
178  2 -0.0215  1.179010 15.100100 20.927500
179  2  0.0039 12.589200 13.024300 20.917600
180  2 -0.5146 13.868200  8.477400  2.088500
181  2 -0.6982  5.773150 17.905100  1.773480
182  2 -0.7363 14.107600  4.023530 16.711800
183  2 -0.4566  8.737670 13.501800 13.577400
184  2 -0.4706  3.851870 14.811900 21.301200
185  2 -0.6254  5.237170 21.991200  9.582310
186  2 -0.8944 15.048200  4.736940 20.922900
187  2  0.0653 15.372600 13.929200 22.994400
188  2 -0.4490  2.965350 11.060200 20.346400
189  2 -0.5052 15.693100  4.466260  6.588220
190  2 -0.2038 14.416000 16.191200  1.990590
191  2 -0.5290 11.860700 22.242200 21.350100
192  2  0.0738 16.221200 15.759700 14.820700
193  2 -0.6462 16.436800 18.637400  8.504830
194  2 -0.5783  0.709009  1.736520 10.536600
195  2 -0.6751 15.210000 21.942400 10.883700
196  2 -0.7164 10.877200  2.659250 17.276200
197  2 -0.4785 11.469800 14.336700  5.717000
198  2 -0.5536 11.832400  5.966780 18.912000
199  2 -0.7808  8.392760  3.819970 11.513000
200  2 -0.7141  2.674870  7.048920 13.163100
201  2 -0.6832  5.630750 11.549300  8.309630
202  2 -0.7122  6.869050  6.230130 23.574700
203  2 -0.5084  6.314060 13.990900  5.099670
204  2 -0.3716 11.407200 22.483700 16.075600
205  2 -0.8007  7.645760 20.939700 12.407500
206  2 -0.4391 15.745400  9.686870 12.414200
207  2  0.0056  0.195964 14.508900 16.345100
208  2 -0.6766  4.411390 21.972500  2.124380
209  2  0.0017 14.554000 15.680800 20.360500
210  2 -0.8267  3.058300 19.491200 10.497700
211  2 -0.5189  2.889190 17.420100  7.135940
212  2 -0.7776 15.232400  9.612700  6.904360
213  2 -0.5050 14.927400  1.731810 18.814300
214  2 -0.6806 11.621000 -0.166540  2.389560
215  2 -0.4538  8.966140 17.769600 16.153500
216  2 -0.6903  5.642360 10.670700 12.029900
217  2 -0.3911  0.556290 13.184300  9.955380
218  2 -0.6145  5.884790  2.798710 22.538300
219  2 -0.5174  3.564930 13.008900  3.166750
220  2 -0.1102 16.882200 18.362800 23.100500
221  2 -0.6969  2.301160  2.165170  3.343320
222  2 -0.4310  5.545710  5.707440 20.291800
223  2 -0.4991  1.740070  5.464400  6.604440
224  2 -0.7324  8.847290  8.425480 11.089100
225  2 -0.5299  2.264390 10.268400  9.700260
226  2 -0.5372 13.446800  6.206690 13.668000
227  2 -0.6942  8.944210 19.009100  3.018340
228  2 -0.4639  8.840690 10.019700 22.096400
229  2 -0.3678 14.708100 23.303100 15.596000
230  2 -0.5242  3.083460  2.804930 19.751100
231  2 -0.4863  0.534787 20.341300 13.349200
232  2 -0.4902  1.682120 22.906100 18.711700
233  2 -0.8028 10.101500 11.822100  8.376820
234  2 -0.6111  1.744780  8.266090 21.396100
235  2  0.0036 12.219200 12.896600  0.159320
236  2 -0.3964 11.470300 16.456700  2.125790
237  2 -0.8059  3.871230  6.571780  1.792990
238  2 -0.5332  6.555820  7.946210 14.084600
239  2 -0.4346 14.179000 19.045100  0.373894
240  2  0.0539 15.725500 13.247200 13.012900
241  2 -0.6075 13.203500  7.993170 10.126200
242  2 -0.4876 16.784700 16.378900 11.693800
243  2 -0.6587  0.605182  7.875540  3.280000
244  2 -0.0586 12.218800 13.349900  2.339760
245  2 -0.7338 10.441200  3.350700  4.426000
246  2 -0.0652 16.676500 20.208200 19.955100
247  2 -0.7291  7.402680 23.036400  2.451190
248  2 -0.5125  6.199770 18.705800  5.708310
249  2 -0.5662  6.472940  5.113970  4.455380
250  2 -0.7279  7.530960  9.342240  1.412410
251  2 -0.5969  7.214200 21.206800 16.624700
252  2 -0.5928  4.840890 19.275200 20.333000
253  2 -0.6171 13.975000  1.210470  7.445870
254  2 -0.8270  1.707230  6.298230 18.235900
255  2 -0.5753 16.725200 22.418200  5.060760
256  2 -0.0337 12.031100 14.205800 16.595100
257  2 -0.2273  9.859240 19.624500 19.152000
258  2 -0.0890 11.351400  9.581290 17.791800
259  2 -0.8171  0.380433 20.903400  1.336600
260  2  0.0129 14.511300 14.325700 17.398900
261  2 -0.4933 14.541700 15.214900  8.447870
262  2 -0.6931 12.160200  6.111130  6.769060
263  2 -0.6688  5.493640 22.563200 19.937600
264  2 -0.6831  5.386540  7.027540 10.692200
265  2 -0.7478  9.114080 14.634900  9.235200
266  2 -0.6187  3.780760 10.666800  0.782460
267  2 -0.4741 13.053800 22.303000  5.831160
268  2 -0.1169 12.278900 16.433100 15.215500
269  2 -0.0654  0.185305 11.389700 14.930700
270  2 -0.6728  6.189380 18.255100  9.138540
271  2 -0.5624 16.211300  6.896430 15.398200
272  2 -0.0628 10.375300 16.532200 20.238600
273  2  0.0124 15.926700 17.304800 20.285300
274  2 -0.7089  5.716500  2.142880  5.351750
275  2 -0.4795 13.902600  1.769200 11.656800
276  2 -0.6588  6.073540 13.041100  0.451289
277  2 -0.6285  6.730190  3.157110 15.557000
278  2 -0.5413 16.383000  1.210010  1.925680
279  2 -0.0257 12.568600 13.071700 18.977000
280  2 -0.6326 12.215900 16.607700 11.292800
281  2 -0.7691  8.899310  0.994752 24.108000
282  2 -0.7474 13.038900 18.533900  7.981920
283  2 -0.8028  9.447770 18.425300 10.320700
284  2 -0.4172  7.834290 10.398300  5.728310
285  2 -0.5935 11.547400 21.832500 11.396300
286  2 -0.8533  5.987890 21.380000 23.870700
287  2 -0.6982  4.828910  1.438490 12.124900
288  2  0.0189 12.010500 10.038600 20.986700
289  2 -0.7857 13.646100  3.414790  0.308163
290  2  0.0021 15.589800 21.982500 19.506100
291  2 -0.6190  2.368740 22.413800  8.061310
292  2  0.0468 12.612100 20.014700 17.146400
293  2 -0.6913  8.593300  2.357090  7.126010
294  2 -0.8717 10.312700  3.442730 21.149900
295  2 -0.6836  0.666674 11.186700  4.694560
296  2 -0.5437  7.223700 17.108300 23.125100
297  2 -0.6427  8.871240  7.691290  4.600370
298  2 -0.4928  9.077450 12.584900  3.347310
299  2 -0.6013  2.324220 23.092500 13.201600
300  2 -0.5033  2.909510 12.408700 12.586200
301  2 -0.5998 13.324400  4.808640  3.558090
302  2 -0.0657  0.516702 14.027700 19.058500
303  2 -0.7561  9.358460 17.232200  6.419050
304  2 -0.5885  6.337080 11.905400 20.559700
305  2 -0.5395 16.161200  4.551260  2.096790
306  2 -0.4266  2.231400 11.892100 17.120700
307  2  0.0217 13.798900 13.438300 14.147200
308  2 -0.2831  1.759160 18.933500 21.633900
309  2 -0.4966  4.242440  0.534910 16.467800
310  2 -0.4530  8.332570  7.155110 18.483300
311  2 -0.5860  3.829110  8.652750  7.857750
312  2 -0.5384 12.656800 19.554100  3.578370
313  2 -0.0978 12.859800 11.013300 16.049900
314  2 -0.5917  6.354420 11.389000 15.530200
315  2 -0.6984  9.325740  0.972748 10.006200
316  2 -0.5848  2.832140 16.511300  3.773700
317  2 -0.4643  0.001616  8.382850 24.145300
318  2 -0.2874 16.192900 12.428300  1.547660
319  2 -0.3722 16.074400  6.828820  8.838280
320  2 -0.0059 15.937800 15.930800 23.147800

