Generated by pymatgen.io.lammps.data.LammpsData

320  atoms

  2  atom types

0.000000 24.637781  xlo xhi
0.000000 17.058433  ylo yhi
0.000000 27.370788  zlo zhi

Masses

1  208.9804
2   78.9600

Atoms

1    1  0.6960 -1.940780 18.148100  0.575488
2    1  0.7933 22.034700  1.307750 14.408400
3    1  0.6205 -1.769150  9.382790  0.704470
4    1  0.7372 21.973800  9.716530 14.138800
5    1  0.6952  9.796880 18.236800  0.765091
6    1  0.6939  9.513810  1.330680 14.534600
7    1  0.7064  9.994900  9.322810  0.731476
8    1  0.7173  9.785040  9.446390 14.275100
9    1  0.6453  3.300960  5.540080  9.854680
10   1  0.7713  4.080370  5.667640 23.796500
11   1  0.8120  2.889020 14.440400  9.957280
12   1  0.7405  3.997860 14.034400 23.754400
13   1  0.7301 15.541200  5.389210 10.339900
14   1  0.7455 15.967600  5.661830 24.565300
15   1  0.7445 15.369500 14.098300 10.267900
16   1  0.7339 16.279800 13.989400 24.301900
17   1  0.7053  3.573500  5.398120  5.784600
18   1  0.7584  4.227920  5.049850 19.537800
19   1  0.7462  3.224360 14.339800  5.435420
20   1  0.6902  3.802550 14.233400 19.415400
21   1  0.7820 15.396500  5.127710  5.779530
22   1  0.7135 16.227900  5.129720 20.195400
23   1  0.6904 15.650200 14.188700  5.912230
24   1  0.6545 16.557100 13.444000 19.338500
25   1  0.7718 21.513400 18.017800 10.054100
26   1  0.7047 -1.837460 18.409900 24.393300
27   1  0.7596 21.691800  9.827880 10.067600
28   1  0.8025 -2.159220  9.775270 23.994700
29   1  0.8128  9.532610 18.120300 10.480500
30   1  0.7118  9.872170 18.152200 23.305800
31   1  0.8263  9.608310  9.688790  9.907940
32   1  0.7906 10.459200  9.492290 23.731800
33   1  0.6323 -1.743590  5.925440  0.908134
34   1  0.7250 22.143000  6.005840 15.147700
35   1  0.6975 22.097800 14.174100  0.488291
36   1  0.7466 21.809100 14.298200 14.122200
37   1  0.6759 10.216200  5.424540  0.719453
38   1  0.7009  9.655840  5.240320 13.892400
39   1  0.7201  9.635860 13.540900  0.590483
40   1  0.7191  9.361270 13.516800 14.656300
41   1  0.7329 22.047500  5.964320 10.196300
42   1  0.7333 -2.311880  5.593600 24.016000
43   1  0.7543 21.546700 14.122200 10.210600
44   1  0.8047 -2.090230 13.804500 23.927000
45   1  0.8363  9.386320  5.667660 10.022700
46   1  0.8161 10.161000  5.325390 23.858000
47   1  0.7278  9.536360 14.174200 10.002700
48   1  0.7785 10.065200 13.961000 23.558700
49   1  0.7511  3.644690 18.052200  5.749300
50   1  0.6955  4.050860 18.089700 19.317400
51   1  0.6933  3.428710  9.715000  5.791530
52   1  0.7813  4.265680  9.815810 19.200900
53   1  0.7489 15.709400 17.969600  6.014800
54   1  0.5905 16.493600 17.873000 19.915600
55   1  0.7571 15.793200  9.462380  6.146890
56   1  0.6742 16.776900  8.944580 19.339900
57   1  0.7384  2.912770 18.532900  9.995920
58   1  0.8293  3.859760 18.252900 23.557300
59   1  0.7413  3.145570 10.105600  9.889260
60   1  0.7520  4.060780  9.829840 23.678100
61   1  0.6911 16.112500  1.841660 10.459300
62   1  0.7497 16.187400 18.352600 24.285000
63   1  0.8027 15.526300  9.660940 10.289500
64   1  0.6817 16.717700  9.477150 24.181500
65   1  0.7546  1.211160  7.603910 25.978900
66   1  0.7030 -0.235786  7.654560 12.316700
67   1  0.7522  0.798869 15.816500 26.567900
68   1  0.8183 -0.232823 16.435500 11.920700
69   1  0.7237 13.294200  7.365330 26.543800
70   1  0.8406 12.338700  7.458630 11.801600
71   1  0.8576 13.080400 15.656200 26.483700
72   1  0.7430 12.450600 15.657100 11.997200
73   1  0.7737  7.384810  7.810260 25.324900
74   1  0.7319  6.932370  7.545350 12.449800
75   1  0.7448  7.289710 15.657900 25.868000
76   1  0.7456  6.338700 16.374000 12.251900
77   1  0.7268 19.576800  7.104180 26.458700
78   1  0.8718 18.422100  7.496730 12.532400
79   1  0.7853 19.163000 15.908100 25.864800
80   1  0.8673 18.871500 16.252200 12.430600
81   1  0.7331  1.096920  3.580370 25.485400
82   1  0.7757  0.410449  3.683900 12.315300
83   1  0.7781  0.780566 11.862900 26.422600
84   1  0.7432 -0.211741 12.159300 12.222700
85   1  0.7368 13.028300  3.329440 26.233300
86   1  0.8526 12.445200  3.253890 12.142100
87   1  0.8289 12.809100 11.530600 26.227800
88   1  0.7811 12.174400 12.120800 12.152500
89   1  0.7696  7.120070  3.197730 26.381200
90   1  0.7385  6.522590  3.370610 11.902800
91   1  0.8388  7.171120 11.861200 25.465400
92   1  0.7433  6.282880 12.051000 12.734500
93   1  0.8412 19.533200  3.247380 26.538800
94   1  0.7301 18.946600  3.675570 12.430000
95   1  0.6891 19.358900 10.999300 26.631100
96   1  0.8333 18.515000 11.726300 12.524700
97   1  0.7681  0.222422  7.529420  7.698110
98   1  0.7607  1.067860  7.402730 21.383200
99   1  0.7031 -0.147247 16.407300  7.219950
100  1  0.8363  1.061440 16.051800 21.644400
101  1  0.8248 12.422900  7.448160  7.681340
102  1  0.7960 13.638600  7.388360 22.286400
103  1  0.7548 12.809000 15.964500  8.244450
104  1  0.7285 13.549100 15.991200 21.432300
105  1  0.7556  6.059450  7.401460  7.470600
106  1  0.7408  7.006660  7.965930 21.553900
107  1  0.8177  5.928270 16.379500  8.300120
108  1  0.7529  7.207360 15.936700 21.566300
109  1  0.8469 18.147100  7.750810  8.577950
110  1  0.7915 19.106700  7.244010 21.919300
111  1  0.8534 18.470500 15.929100  8.098460
112  1  0.6899 19.455200 15.590400 21.163800
113  1  0.7379  0.133162  3.156830  7.452530
114  1  0.7658  0.751041  3.385980 21.377100
115  1  0.8067 -0.121932 12.270800  7.560680
116  1  0.7532  0.882119 11.714000 21.733500
117  1  0.8541 12.567300  3.029590  8.059690
118  1  0.7474 13.666500  3.106590 22.082300
119  1  0.7758 12.775600 11.909000  7.854710
120  1  0.7425 13.440400 11.433400 21.851700
121  1  0.8279  6.518080  3.153500  8.091330
122  1  0.8361  7.055850  2.947840 21.738100
123  1  0.7831  5.903680 12.116700  8.043400
124  1  0.8207  7.014600 11.792100 21.520400
125  1  0.7835 18.540600  3.573970  8.490830
126  1  0.8159 19.091200  2.923090 22.168900
127  1  0.8013 18.223200 12.019300  8.646570
128  1  0.7770 19.443800 11.344100 21.969400
129  2 -0.8240  6.532850  5.390920  9.720720
130  2 -0.6959  7.054120  5.197010 23.715500
131  2 -0.7324  5.854170 14.087300 10.113700
132  2 -0.8614  7.224980 13.848800 23.563900
133  2 -0.8385 18.559700  5.658340 10.420200
134  2 -0.6936 19.053300  5.296930 23.927400
135  2 -0.7702 18.600900 14.224300 10.300100
136  2 -0.6996 19.418100 13.714300 23.914300
137  2 -0.7760  0.172418  5.419320 10.177200
138  2 -0.8246  1.098060  5.814790 23.630200
139  2 -0.7652 -0.110009 13.919900  9.762600
140  2 -0.7362  0.913679 13.926300 23.734900
141  2 -0.7493 12.276400  5.420000  9.916980
142  2 -0.8113 12.972000  5.441380 24.160700
143  2 -0.9404 12.796300 13.824500  9.908780
144  2 -0.6797 12.979900 13.855600 23.956100
145  2  0.0473 18.672500  3.116840  3.717020
146  2 -0.1716 -1.452010  3.260990 16.881300
147  2  0.0274 19.027000 11.881100  3.945570
148  2 -0.1227 -2.092030 11.926000 16.954900
149  2 -0.0218  9.451090  1.544800  4.487250
150  2 -0.0385 11.930200  3.729390 17.293400
151  2 -0.0287  6.436610 11.761400  3.213450
152  2 -0.1304 10.450600 10.359600 17.225400
153  2 -0.0281 21.116200  7.257430  4.671300
154  2 -0.1382 -1.249760  8.158150 17.106500
155  2 -0.0474 19.402000 16.134800  3.881480
156  2 -0.1066  2.439490 14.268900 16.355700
157  2 -0.0607  9.334310  7.068880  4.641500
158  2  0.0233 13.064000  7.475280 17.376900
159  2  0.0290  9.501470 15.227600  4.784910
160  2  0.0194 10.702300 14.446400 19.010600
161  2 -0.8577  6.325460  1.236460 10.223700
162  2 -0.7550  6.729890 18.307500 23.698800
163  2 -0.6574  6.946340 10.216500 10.410100
164  2 -0.8811  6.848640  9.930830 23.418300
165  2 -0.7996 18.630200  1.189570 10.252100
166  2 -0.7043 19.582500 18.175200 24.492900
167  2 -0.7884 18.371100  9.597050 10.383800
168  2 -0.7845 19.670900  9.307750 24.209000
169  2 -0.7695  0.096753  1.013620  9.724970
170  2 -0.7720  0.979297 18.342400 23.234700
171  2 -0.6968  0.036444  9.489280  9.958580
172  2 -0.7476  1.019820  9.833280 24.241700
173  2 -0.7793 12.268900 18.562100 10.295400
174  2 -0.7220 13.209200 18.123900 24.253800
175  2 -0.7619 12.412200  9.557610 10.021700
176  2 -0.7980 13.071300  9.541830 24.196400
177  2 -0.0546 10.227200  3.614390  4.534690
178  2 -0.0225  1.258560  2.983300 16.145100
179  2 -0.0510  4.549570 12.158000  2.594600
180  2  0.0281  0.228447 11.922300 16.852900
181  2 -0.1517 16.578800  3.282530  3.268100
182  2 -0.0196 14.076800  3.436950 16.437100
183  2 -0.1334 16.937800 11.554300  3.483230
184  2 -0.0165 11.960500 11.860100 16.721600
185  2 -0.0929  9.371360  9.385450  4.286330
186  2 -0.1342  4.069220  7.435200 16.877100
187  2 -0.1160  7.938290 15.791300  3.233060
188  2  0.0030  2.232960 16.473400 15.924600
189  2 -0.0815 22.381600  8.911650  4.916970
190  2 -0.0877 15.004800  7.105000 16.563400
191  2 -0.1128 17.034700 16.418400  3.029040
192  2 -0.0592 11.384000 15.712500 17.384400
193  2 -0.5258  0.665357  5.280290  5.586350
194  2 -0.4839  1.296440  5.071580 19.421000
195  2 -0.4207  0.421273 13.932600  4.956720
196  2 -0.4240  0.986820 13.915700 19.569100
197  2 -0.4953 12.745800  4.916470  6.069830
198  2 -0.4709 13.743700  5.073540 20.084900
199  2 -0.3926 12.617300 14.733600  5.581890
200  2 -0.3761 13.717800 13.513300 19.282700
201  2 -0.4882  6.386270  5.414310  5.835840
202  2 -0.3274  7.405670  5.627600 19.419000
203  2 -0.4704  5.719810 14.306800  5.951460
204  2 -0.4097  7.193000 14.057800 19.284700
205  2 -0.3763 18.411800  5.523480  6.381940
206  2 -0.3878 19.295400  4.882630 19.718000
207  2 -0.4875 18.249400 13.886100  6.262420
208  2 -0.4228 19.397600 13.107500 19.044500
209  2 -0.8850 21.473800  7.587130 12.540500
210  2 -0.9327 -2.066480  7.673780 26.137900
211  2 -0.9342 21.635000 16.555000 12.316200
212  2 -0.8868 -1.951390 15.947400 25.893400
213  2 -0.9426  9.601600  7.555790 11.995600
214  2 -0.8814 10.097600  7.614210 25.764800
215  2 -0.8815  9.451400 16.119600 12.103300
216  2 -0.8356  9.903520 15.971400 26.251400
217  2 -0.7633 -2.358820  3.753650 12.424000
218  2 -0.8530 -2.249390  3.766630 26.145600
219  2 -0.8792 21.301700 11.866700 12.208600
220  2 -0.8544 -2.129520 11.878400 25.893800
221  2 -0.8803  9.773480  3.512750 11.864200
222  2 -0.8738  9.918280  3.321410 26.127600
223  2 -0.8375  9.440450 11.843300 12.291600
224  2 -0.8570 10.193500 11.517800 25.321300
225  2 -0.4596  0.690564  1.311760  0.802286
226  2 -0.4199  0.052356 18.233900 14.070000
227  2 -0.3719  1.512100 10.045500  1.106070
228  2 -0.4692 -0.078185  9.800970 14.242400
229  2 -0.3688 12.866900 17.432200  1.108920
230  2 -0.3892 12.204100 17.820600 14.413300
231  2 -0.5232 12.764900  9.489980  1.017230
232  2 -0.3806 12.622200  9.891510 14.045700
233  2 -0.3187  6.290960 17.772700  1.018260
234  2 -0.4871  6.632570  1.614220 14.269800
235  2 -0.4584  7.079260  9.954570 -0.126156
236  2 -0.4146  6.926670  9.464050 14.950700
237  2 -0.4598 19.917700 18.323600  0.822579
238  2 -0.4868 19.133700  1.446880 14.240900
239  2 -0.3254 19.781000  9.115570  1.924550
240  2 -0.4408 18.695500  9.413510 14.428400
241  2 -0.8896  3.132070  7.611060  7.920010
242  2 -0.8271  4.050370  7.544500 21.215700
243  2 -0.8646  3.140260 16.424200  7.962780
244  2 -0.8789  3.738190 16.042400 21.696300
245  2 -0.8777 15.475400  7.413460  8.293400
246  2 -0.9257 16.264800  7.263780 22.348900
247  2 -0.9144 15.601300 16.373600  8.221000
248  2 -0.8634 16.295500 15.732500 22.109700
249  2 -0.8350  3.099610  3.147510  7.645480
250  2 -0.8379  4.356460  3.231130 21.580600
251  2 -0.8034  3.065980 12.266800  8.074530
252  2 -0.8469  4.072060 11.732900 21.399700
253  2 -0.8563 15.678200  3.416180  7.760030
254  2 -0.9033 16.479500  3.237940 22.301500
255  2 -0.8883 15.491900 11.531600  8.004960
256  2 -0.7935 16.541800 11.476800 21.785000
257  2 -0.4387  7.241720  5.600860  0.633990
258  2 -0.4924  6.769970  5.378350 14.223600
259  2 -0.4530  6.827970 13.755800  0.335114
260  2 -0.4665  6.354190 13.781000 14.955300
261  2 -0.3705 19.551800  5.292790  1.349540
262  2 -0.3775 18.972200  5.625880 15.042900
263  2 -0.4270 18.926900 13.568500  0.435308
264  2 -0.5330 19.167800 14.277700 14.308900
265  2 -0.3851  1.683790  5.070500  0.503694
266  2 -0.2796  0.556441  5.927700 15.218000
267  2 -0.4955  0.316245 13.696600  1.167000
268  2 -0.4772 -0.195670 14.613300 13.996600
269  2 -0.5175 13.018400  4.909200  1.219540
270  2 -0.5113 12.496500  5.530290 13.663900
271  2 -0.5344 12.426400 13.633600  0.636054
272  2 -0.4659 12.230200 13.854100 14.207100
273  2 -0.4570 21.588300  3.427460  8.060530
274  2 -0.4337 -2.423820  2.987340 21.958400
275  2 -0.5160 21.357300 11.883000  8.447360
276  2 -0.5141 -2.241410 11.382200 21.964600
277  2 -0.3912  9.588850  3.258350  8.158190
278  2 -0.4524 10.224300  3.697500 21.875400
279  2 -0.3971  9.274310 12.206000  7.970390
280  2 -0.4304  9.965410 12.099100 21.468900
281  2 -0.4227 21.278200  7.935600  8.114560
282  2 -0.4352 -2.541680  7.318160 21.777000
283  2 -0.5841 21.238700 15.979900  8.216280
284  2 -0.4277 -2.140700 15.910700 21.856800
285  2 -0.4537  9.242360  7.761270  7.971330
286  2 -0.4117 10.446800  7.192180 21.675200
287  2 -0.4637 10.014300 16.270600  8.197530
288  2 -0.5535 10.063700 16.198200 21.650200
289  2 -0.5501  6.246630 18.191600  6.445530
290  2 -0.5276  6.944590 18.281100 19.509500
291  2 -0.4691  6.308580  9.858500  6.044630
292  2 -0.4578  6.958900  9.787060 19.195100
293  2 -0.3814 18.592100  1.142070  6.194950
294  2 -0.4530 19.307400 18.099100 19.419300
295  2 -0.3715 18.540700  9.561760  6.502570
296  2 -0.4562 19.419300  9.130110 19.607700
297  2 -0.4231  0.637812 17.563900  4.573740
298  2 -0.3937  1.324480  0.896402 19.067000
299  2 -0.4715  0.723792 10.163500  5.570490
300  2 -0.3475  1.174320  9.673850 19.235400
301  2 -0.3265 12.642000 18.174100  5.639890
302  2 -0.4260 13.316100 18.065300 19.626700
303  2 -0.5002 12.719900  9.598950  6.044000
304  2 -0.4001 13.843200  9.438100 19.552400
305  2 -0.3886  3.084570  2.754890 12.736500
306  2 -0.4737  3.889110  3.306680 25.538900
307  2 -0.4601  2.589390 11.855400 11.868700
308  2 -0.3932  4.356940 11.955900 25.979800
309  2 -0.5127 15.441900  3.758060 12.474200
310  2 -0.4803 16.623600  3.264500 26.312800
311  2 -0.5179 15.643600 11.854600 12.110500
312  2 -0.3772 15.798700 11.874600 26.717800
313  2 -0.3735  2.976370  7.880520 12.330500
314  2 -0.5142  4.049720  7.704180 25.601900
315  2 -0.4298  2.759200 16.193100 12.082200
316  2 -0.4541  3.911190 16.084600 25.809200
317  2 -0.4878 15.811200  7.645460 12.246600
318  2 -0.5446 16.747100  7.624190 26.556500
319  2 -0.4258 15.750800 16.168700 12.378300
320  2 -0.4867 16.168600 16.173000 26.162900

