Generated by pymatgen.io.lammps.data.LammpsData

78  atoms

 2  atom types

0.000000 11.792866  xlo xhi
0.000000 10.584991  ylo yhi
0.000000 17.144600  zlo zhi
-6.111247 0.000000 0.000000  xy xz yz

Masses

1  106.42
2   78.96

Atoms

1   1  1.028880  7.664400  0.294694
2   1  7.012640  0.379830  8.224550
3   1 -3.037630  3.809170  0.277032
4   1  9.286120  2.557650 11.757000
5   1 -1.547920  9.620870 14.278200
6   1 -0.223385  7.166230 15.395600
7   1  4.564170  1.746900 13.060600
8   1  2.455010  2.033780  9.847410
9   1  4.330840  0.913723  0.835372
10  1 -3.077110  8.707900  4.088010
11  1 -1.330150  0.663826 14.695600
12  1  0.686306  0.061397  9.039970
13  1  6.936390  2.748520  1.771560
14  1  3.072500  8.309740 12.382900
15  1  3.745700  9.737980  8.826200
16  1  0.218028  3.886160  6.199050
17  1 -3.277640  4.757900 10.412600
18  1  0.450843  7.876900  5.553160
19  2  1.803000 -0.289439  0.649180
20  2 -2.511950  4.972830  2.557990
21  2  8.763940  0.228598  3.762280
22  2  3.424410  8.702620  1.886890
23  2  0.504577  3.044620 11.670800
24  2 -1.817780  6.180790  9.215100
25  2 -0.257351  3.684390  3.263480
26  2  0.135594  9.690660  4.179750
27  2  1.828410  9.245980 10.531400
28  2  4.924690  1.646070 10.524000
29  2 -1.658050  5.720690 13.396100
30  2 -4.357400  5.983940  0.507081
31  2 -2.461010  6.370610 15.291300
32  2 -0.051734  9.682550 16.266600
33  2  0.534274  0.798739 13.286900
34  2  6.164030  7.646700  3.700990
35  2  0.829623  7.695770  7.929760
36  2 -1.885220  3.253520  4.480470
37  2 -3.611350  6.537590  7.261890
38  2  8.927300  2.070010 16.147300
39  2  0.055434  3.212030 16.414700
40  2 10.072200  0.174041 10.982600
41  2 -1.233320  7.899840  1.020070
42  2  2.643020  4.849470  6.967210
43  2  9.622050  1.524240  8.005070
44  2 -1.390410  7.327030  3.556960
45  2  1.950040  4.777530 17.433900
46  2  3.332160  3.746100  9.058500
47  2 -0.781886  3.419940  9.955340
48  2  8.754640  0.633226 12.755500
49  2  2.904890  4.650000 13.213600
50  2 -0.382501  0.889439  4.315390
51  2  0.475479  5.477740  8.547090
52  2  4.538340  5.997200  5.431070
53  2  5.639290  7.257720  7.092110
54  2 -1.709660  8.810790  5.935100
55  2  4.145370  1.747980  6.682780
56  2  5.720270  7.627100  1.227240
57  2  6.198990  3.665790 12.112700
58  2  5.435090  8.615470 10.900900
59  2  8.091220  1.169370  0.793016
60  2  6.969490  5.817370 11.637800
61  2 -4.955570  9.634670  6.776870
62  2 -2.698550  7.809510 12.234000
63  2  2.222330  0.229648  3.232310
64  2  5.138550 -0.476795 10.180700
65  2  2.129060 -0.468087 11.158000
66  2  1.576890  4.934070 15.019500
67  2  6.299410  2.090410  6.770640
68  2  4.340150  5.739710  9.835850
69  2  5.438320  6.348730 13.841000
70  2  2.497620  0.966302 15.148700
71  2  6.004340  4.132700 15.178500
72  2  2.728180  7.428500  4.456020
73  2  1.183100  2.333340  7.279370
74  2  5.968750  1.845660 15.415500
75  2  8.167730  4.155240  7.911230
76  2  4.540580  2.855170  2.022640
77  2  0.430928  6.563760 12.792200
78  2  2.000220  8.451940 14.459100

