Generated by pymatgen.io.lammps.data.LammpsData

320  atoms

  2  atom types

0.000000 24.637781  xlo xhi
0.000000 17.058433  ylo yhi
0.000000 27.370788  zlo zhi

Masses

1  208.9804
2   78.9600

Atoms

1    1  0.7327 -2.059660 18.489100  0.256518
2    1  0.6959 21.915800  1.570550 15.133900
3    1  0.6788 -1.758280  9.946060  0.809602
4    1  0.7489 21.778600 10.331300 15.051100
5    1  0.7188  9.444890 18.359100  1.088700
6    1  0.7080  9.212390 18.113600 14.635200
7    1  0.6974 10.507900  9.404720  0.544830
8    1  0.6972  9.578150 10.077300 14.376600
9    1  0.7819  3.591330  5.624230 10.217900
10   1  0.8250  4.203970  5.850560 23.601400
11   1  0.7791  3.209850 14.219900 10.018100
12   1  0.7133  4.537800 13.807000 23.923800
13   1  0.7288 15.747000  5.563220 11.221400
14   1  0.8198 16.617100  5.624800 24.011700
15   1  0.7096 15.762300 14.034900 10.125400
16   1  0.7180 16.697500 14.033000 23.621800
17   1  0.6636  3.467060  5.646270  5.660110
18   1  0.7701  4.389060  5.860000 19.208300
19   1  0.7197  3.618530 14.660900  5.611270
20   1  0.6841  4.468660 14.292400 19.709200
21   1  0.7114 16.438400  5.604940  6.017720
22   1  0.7663 16.560200  5.127550 19.903700
23   1  0.7054 15.884300 14.289200  6.202190
24   1  0.6794 16.714600 14.057500 19.092800
25   1  0.8189 21.840700  1.448250 10.885700
26   1  0.7076 -2.197940 18.342600 23.566500
27   1  0.7337 21.819600  9.908370 10.821500
28   1  0.7983 -1.904800  9.776680 23.424000
29   1  0.7630  9.525600  1.716820 10.197900
30   1  0.7036 10.207600 18.194000 23.560500
31   1  0.7972  9.361680  9.778620  9.873050
32   1  0.7277 10.465400  9.563060 23.805900
33   1  0.6422 -2.093710  5.675770  0.445208
34   1  0.8090 -2.092850  5.474240 15.039600
35   1  0.6654 -1.558050 14.134500  0.314589
36   1  0.7397 21.710100 14.075500 14.769600
37   1  0.7181  9.975450  5.372730  0.807914
38   1  0.6275  9.417090  5.354620 14.584600
39   1  0.7473 10.510000 14.303400  0.827582
40   1  0.7101  9.189730 14.341000 14.455300
41   1  0.7910 21.580700  5.666150 11.254000
42   1  0.7736 -1.796650  5.299280 23.887100
43   1  0.7796 22.128200 14.439400 10.059700
44   1  0.7973 -1.686970 14.306400 23.587700
45   1  0.7420  9.586390  5.547580 10.486600
46   1  0.6935  9.981500  5.481210 23.629000
47   1  0.7825  9.169470 14.386100 10.348800
48   1  0.8142 10.583200 14.104900 23.967800
49   1  0.6466  2.538050  1.848580  5.808960
50   1  0.7589  3.916430  1.535150 20.209100
51   1  0.6956  3.363840  9.840710  5.936740
52   1  0.7499  4.709490 10.325100 19.363300
53   1  0.7780 16.186100  1.594550  6.133460
54   1  0.6972 16.432800 18.175400 19.475900
55   1  0.6806 15.543500  9.200310  6.156020
56   1  0.7244 16.815900 10.117300 19.398600
57   1  0.7268  2.992650  1.355150 10.140800
58   1  0.7829  4.184990  1.585510 24.077400
59   1  0.7777  3.673930  9.643700 10.451700
60   1  0.7823  4.760970  9.707280 24.366800
61   1  0.7227 15.867100  1.596800 10.671400
62   1  0.7306 16.400300 18.267400 23.809100
63   1  0.7400 15.489500  9.541060 10.272400
64   1  0.7847 16.516600  9.579070 23.315100
65   1  0.8186  0.962764  7.307930 25.618100
66   1  0.8108  0.126794  7.596330 12.483200
67   1  0.7974  1.339390 16.323300 26.506200
68   1  0.8105  0.169710 16.365400 12.200300
69   1  0.8308 13.755100  7.607970 26.227300
70   1  0.7321 12.332900  7.895880 12.780700
71   1  0.7861 13.138500 16.276200 25.857900
72   1  0.8045 12.084700 16.423000 12.212300
73   1  0.7269  7.432350  7.709380 25.956800
74   1  0.7892  6.600580  7.854730 12.968700
75   1  0.7748  7.504170 16.072600 25.977900
76   1  0.8287  6.348440 16.543200 12.104800
77   1  0.7735 19.942700  7.894980 25.953000
78   1  0.7697 19.371600  7.768440 13.519000
79   1  0.7664 20.190900 16.070000 25.621000
80   1  0.7428 18.857600 16.448300 13.073600
81   1  0.8119  1.140380  3.629560 26.148800
82   1  0.8178  0.305459  3.519280 12.579000
83   1  0.8368  1.106100 11.699300 25.976100
84   1  0.7700  0.154329 12.118500 12.569500
85   1  0.8283 13.592400  3.380760 26.195500
86   1  0.7281 12.565000  3.694430 12.661300
87   1  0.7184 13.999400 11.823200 26.505000
88   1  0.7853 12.008700 12.408300 12.341200
89   1  0.7394  7.413020  3.289730 25.726500
90   1  0.7619  6.519730  3.623610 12.323800
91   1  0.7676  7.896610 11.818900 26.161400
92   1  0.7912  6.463760 11.941000 12.037500
93   1  0.7773 19.933500  3.392000 25.909500
94   1  0.7287 19.047400  3.407850 13.149200
95   1  0.8473 20.158100 12.115700 25.456900
96   1  0.8567 19.133000 12.036200 12.655300
97   1  0.7904  0.366630  8.173000  8.186050
98   1  0.7665  1.637910  7.813570 21.919000
99   1  0.7522  0.195233 17.006100  8.084210
100  1  0.7893  1.356700 16.064900 22.132800
101  1  0.8090 12.606400  7.704930  8.064960
102  1  0.7766 13.537400  7.393390 21.839800
103  1  0.7400 13.167400 16.340400  8.150530
104  1  0.7826 13.653800 16.242100 21.617400
105  1  0.7539  6.255690  8.079190  7.858850
106  1  0.7677  7.403610  7.706950 21.670900
107  1  0.8364  5.604090 16.635100  7.812570
108  1  0.7500  7.370010 15.832900 21.936900
109  1  0.7782 18.589200  7.743490  9.198040
110  1  0.8065 19.800400  7.454170 21.489900
111  1  0.8306 19.015500 16.472600  8.729530
112  1  0.7605 19.741600 16.359000 21.314100
113  1  0.8517 -0.201755  4.099470  8.345040
114  1  0.7964  1.239850  3.360550 21.869600
115  1  0.7067  0.514913 12.204600  8.000070
116  1  0.7418  1.766200 12.107600 21.843400
117  1  0.8012 12.860800  3.549050  8.417030
118  1  0.7922 13.542600  3.387700 22.114400
119  1  0.7599 12.714800 12.204100  8.039960
120  1  0.6992 13.919900 12.059900 22.066900
121  1  0.7935  6.269290  3.447030  7.911060
122  1  0.7672  6.993040  3.367600 21.916600
123  1  0.7737  6.249090 12.402500  8.161150
124  1  0.8039  7.591050 11.802500 21.927600
125  1  0.7435 18.716700  3.655360  8.596460
126  1  0.7794 19.523400  3.526730 22.187000
127  1  0.7927 18.825600 11.903100  8.657210
128  1  0.8409 19.947300 11.710700 21.260300
129  2 -0.7361  6.443040  5.702250 10.569900
130  2 -0.8315  6.993180  5.553610 23.664100
131  2 -0.7552  6.081320 14.611100 10.122400
132  2 -0.8200  7.975700 13.949500 23.913100
133  2 -0.8085 18.901100  5.790660 11.227100
134  2 -0.7908 19.628000  5.710810 23.994400
135  2 -0.7146 18.834400 14.227400 10.472700
136  2 -0.7328 19.754400 13.908400 23.433800
137  2 -0.7339  0.232961  5.585080 10.553100
138  2 -0.8415  1.361350  5.542900 23.734600
139  2 -0.8053  0.150267 14.215600 10.209400
140  2 -0.7553  1.343490 13.822500 24.023700
141  2 -0.7578 12.636500  5.645910 10.350600
142  2 -0.7315 13.611300  5.555340 24.208600
143  2 -0.7596 12.507300 14.559300 10.211200
144  2 -0.8139 13.481000 14.277500 23.615100
145  2 -0.1450 17.267100  4.648020  3.122330
146  2 -0.0802 -0.353771  3.908670 17.869200
147  2 -0.0098 19.616800 12.358700  3.541960
148  2 -0.2484 21.854800 12.216200 17.449300
149  2 -0.0518 10.435400  2.894690  4.389500
150  2 -0.0279 11.202600  3.439790 17.745600
151  2  0.0456  5.761790 11.856000  2.793210
152  2 -0.0482 10.162700 10.984900 18.040100
153  2 -0.0603 21.986400  7.192460  4.285830
154  2 -0.1237 22.606400  8.121010 17.527600
155  2  0.0363 17.905800 15.828000  2.404280
156  2  0.0519  1.390130 16.466500 17.259600
157  2 -0.0392  9.101990  7.597870  4.771420
158  2 -0.0865 15.392200  9.012590 16.753100
159  2 -0.0081  9.388830 14.307400  5.284610
160  2 -0.0730 10.188400 17.650800 18.108100
161  2 -0.7621  6.183670 18.453900  9.719620
162  2 -0.8258  7.021210 17.992900 24.150700
163  2 -0.8066  6.648190  9.824210 10.057900
164  2 -0.8754  7.459460  9.710590 24.014100
165  2 -0.7931 19.047800  1.337250 10.834900
166  2 -0.8454 19.614900 18.526800 23.834300
167  2 -0.7515 18.878400  9.966980 10.797000
168  2 -0.7303 19.945600  9.885510 23.550800
169  2 -0.8125  0.025617  1.739450 10.566800
170  2 -0.7625  1.531670 18.192700 23.794600
171  2 -0.7297  0.549432  9.949600 10.543200
172  2 -0.7569  1.425750  9.934870 23.962900
173  2 -0.7614 12.737300 18.510200 10.347700
174  2 -0.7989 13.132200  1.440630 23.970500
175  2 -0.7080 12.392200  9.766380 10.316200
176  2 -0.7591 13.934000  9.304090 24.028400
177  2 -0.1180  9.975260  4.904040  3.972550
178  2 -0.0432  1.485190  3.257520 17.011900
179  2 -0.1372  3.694240 11.810800  2.936310
180  2  0.0134 -0.628984 12.233600 17.716900
181  2 -0.0629 15.950900  3.042110  2.745480
182  2 -0.0130 13.116500  3.354790 16.881000
183  2 -0.0745 17.370200 11.940000  3.070030
184  2  0.0175 11.789500 12.268300 17.445900
185  2 -0.0376  9.579190  9.725780  4.538640
186  2 -0.2605  5.762850  7.780710 17.226600
187  2 -0.0470  8.989280 12.607300  3.987670
188  2 -0.1391  3.467610 16.744900 17.195900
189  2 -0.0396 19.814300  7.721030  3.748250
190  2 -0.0906 16.462700  6.963200 16.288500
191  2 -0.0704 15.774400 16.096000  2.896150
192  2 -0.0106 11.439400 15.892500 17.767400
193  2 -0.4198  0.022153  6.017680  6.292750
194  2 -0.3706  1.357970  6.201160 19.635900
195  2 -0.3917  0.057067 14.757400  5.655990
196  2 -0.4064  1.688340 14.076300 19.487400
197  2 -0.3969 13.663500  5.437900  5.803390
198  2 -0.4269 13.905500  5.133080 19.734000
199  2 -0.4860 13.066900 14.432800  5.997080
200  2 -0.4014 13.836600 13.819600 19.542300
201  2 -0.3962  6.675990  5.650780  5.955780
202  2 -0.4179  7.226750  5.662650 19.525500
203  2 -0.4616  6.219850 14.571900  6.011620
204  2 -0.4344  7.302860 13.648900 19.474900
205  2 -0.3668 19.145700  5.623380  6.298630
206  2 -0.3950 19.745500  5.201980 19.817800
207  2 -0.4299 18.572800 14.225400  6.419170
208  2 -0.4653 19.406600 14.194700 18.914300
209  2 -0.9036 22.148000  7.860660 13.052600
210  2 -0.8983 -1.707170  7.556400 25.259400
211  2 -0.8458 21.918100 16.172300 12.384300
212  2 -0.9122 -1.608600 16.283700 25.722500
213  2 -0.8721  9.353120  7.959210 12.464800
214  2 -0.8611 10.669000  7.596690 25.686500
215  2 -0.9014  9.254030 16.438500 12.451400
216  2 -0.8594 10.429900 16.216400 26.062500
217  2 -0.9401 21.840500  3.716440 13.158400
218  2 -0.9549 -1.763510  3.418020 25.903900
219  2 -0.8894 21.771300 12.106400 12.697000
220  2 -0.8447 -1.697150 11.761500 25.610700
221  2 -0.9335  9.555100  3.485150 12.277400
222  2 -0.7945 10.374600  3.390550 26.248600
223  2 -0.8818  9.443810 12.361100 12.205600
224  2 -0.8198 10.762500 11.921900 26.000200
225  2 -0.5328  0.831726  1.338300  0.880156
226  2 -0.3770  0.286349 18.089700 14.628100
227  2 -0.4266  1.034330  9.789840  0.886976
228  2 -0.3624  0.240717 10.036500 14.628700
229  2 -0.3585 12.230400 17.974400  1.180080
230  2 -0.4389 11.893700 17.749000 14.655300
231  2 -0.4566 13.673900  9.927420  1.157630
232  2 -0.4050 12.530300 10.367500 14.353100
233  2 -0.3972  6.684820  1.464460  0.723558
234  2 -0.4462  6.131420  1.201350 14.144300
235  2 -0.4946  7.955750  9.927520  0.795973
236  2 -0.4692  6.535420 10.216900 14.418400
237  2 -0.4445 19.899300 18.220500  0.359938
238  2 -0.5031 19.233400  1.943750 15.677300
239  2 -0.4658 20.177300  9.967040  0.616611
240  2 -0.4513 18.789100 10.278200 14.888800
241  2 -0.8388  3.269410  7.760610  8.308410
242  2 -0.8228  4.509760  8.087770 21.836900
243  2 -0.9383  3.078470 16.596800  7.607890
244  2 -0.8301  4.374950 16.417100 22.073700
245  2 -0.8481 15.502900  7.419660  8.393680
246  2 -0.8375 16.645000  7.529720 21.682800
247  2 -0.8397 16.147200 16.673300  7.953390
248  2 -0.8724 16.580000 16.150400 21.732900
249  2 -0.8251  2.893760  4.220080  7.870870
250  2 -0.8629  4.315960  3.901970 21.578800
251  2 -0.8601  3.535310 12.224600  8.415540
252  2 -0.8975  4.762420 12.092900 21.826300
253  2 -0.8293 15.803000  3.545190  8.480400
254  2 -0.8912 16.426000  3.550210 22.099500
255  2 -0.8450 15.517400 11.594500  8.240280
256  2 -0.8714 17.111400 11.672400 21.510600
257  2 -0.4536  7.190320  5.136070  0.515440
258  2 -0.4158  6.018650  5.188880 14.540200
259  2 -0.4538  7.888810 14.204000  1.015740
260  2 -0.4506  6.406940 14.063500 14.062100
261  2 -0.4143 19.608000  5.285910  0.668438
262  2 -0.4059 19.959800  6.104750 15.761100
263  2 -0.5142 20.167700 14.111600 -0.034042
264  2 -0.5154 18.758700 14.188500 14.605200
265  2 -0.5159  1.081710  5.677540  0.489368
266  2 -0.4570  0.618282  5.712600 14.519700
267  2 -0.4692  1.412010 13.782100  0.584591
268  2 -0.3826 -0.208068 14.418600 14.766100
269  2 -0.4166 13.148400  5.586330  0.950717
270  2 -0.4237 12.336900  5.873120 14.995600
271  2 -0.3976 13.424200 14.705800  0.919250
272  2 -0.3761 12.069500 14.100600 14.717100
273  2 -0.5577 21.662600  3.747230  9.344530
274  2 -0.4646 -1.990820  3.639060 21.651000
275  2 -0.5037 21.492300 11.932000  8.566080
276  2 -0.5154 -1.787600 12.396100 21.949500
277  2 -0.4887  9.474590  3.419340  8.323110
278  2 -0.4772 10.369100  3.595830 21.686200
279  2 -0.5335 10.012100 12.285400  8.594560
280  2 -0.4350 10.617800 11.912100 21.888100
281  2 -0.4474 21.368600  7.820870  8.933420
282  2 -0.4080 -1.733110  7.361550 21.582300
283  2 -0.4886 21.774600 17.004900  8.525610
284  2 -0.5299 -1.739330 16.147500 21.717100
285  2 -0.4570  9.722360  7.633800  8.072970
286  2 -0.4544 10.698400  7.631990 21.413800
287  2 -0.3846  8.831950 16.364400  8.222530
288  2 -0.4511 10.341600 15.930400 21.672200
289  2 -0.5024  5.582040  1.903930  5.868230
290  2 -0.4705  6.813080  1.560230 19.775600
291  2 -0.5041  6.015060 10.215200  6.020760
292  2 -0.3928  7.334390 10.120400 19.176900
293  2 -0.4006 18.882900 18.353000  6.345210
294  2 -0.4626 19.314500 18.455300 19.416700
295  2 -0.3773 18.977500  9.332660  6.969050
296  2 -0.4853 19.623400  9.578040 19.375800
297  2 -0.4256 -0.557857  1.572790  6.269020
298  2 -0.5005  1.239580 18.465100 20.206800
299  2 -0.4915  0.589239  9.909140  5.807930
300  2 -0.3769  1.768120 10.282400 19.374100
301  2 -0.3749 13.420100  1.488900  5.726920
302  2 -0.4726 13.767300  1.222750 19.761100
303  2 -0.4218 12.914600  9.496760  5.555990
304  2 -0.2963 13.478800 10.073000 19.490600
305  2 -0.4489  3.174700  3.160440 12.271400
306  2 -0.4758  4.121820  3.756190 25.712200
307  2 -0.4309  3.606630 12.099700 12.285100
308  2 -0.3883  4.809210 11.825800 26.389800
309  2 -0.5583 15.531700  3.772730 12.976900
310  2 -0.4690 16.456500  3.088760 25.875700
311  2 -0.3855 15.799400 12.430600 12.155800
312  2 -0.4335 17.131500 12.213200 25.828200
313  2 -0.4529  3.479340  7.746880 12.395800
314  2 -0.4869  4.318940  7.596470 25.841600
315  2 -0.5261  2.866950 16.542100 11.904200
316  2 -0.4098  4.460620 15.911500 26.255200
317  2 -0.4058 15.858700  8.291130 12.764900
318  2 -0.5393 16.761400  7.772660 25.475100
319  2 -0.4573 15.502100 16.336200 12.279700
320  2 -0.3273 16.495300 16.142400 26.272400

