Generated by pymatgen.io.lammps.data.LammpsData

320  atoms

  2  atom types

0.000000 16.864293  xlo xhi
0.000000 23.165087  ylo yhi
0.000000 24.472453  zlo zhi

Masses

1  208.9804
2   78.9600

Atoms

1    1  0.8077  3.506670 10.795500  4.925500
2    1  0.8680 14.842800 11.844700 21.876900
3    1  0.8841  2.272280  2.066760 12.535600
4    1  0.7140  3.800270 22.920500 16.298400
5    1  0.8363  4.266770 10.067900 14.174800
6    1  0.7242  5.631350 14.003600 20.859100
7    1  0.6675  6.018420  2.161060 12.103100
8    1  0.7382  1.818290 20.577800 18.534800
9    1  0.7498 11.087400 16.604000 10.211900
10   1  0.7805 10.540800 10.483200  2.340170
11   1  0.6898 11.054200  1.418780 11.864300
12   1  0.7325 13.301600 20.777000 22.996800
13   1  0.8776 15.628900 11.890900  8.033420
14   1  0.7167  9.789270  6.974930  0.926985
15   1  0.7818  0.036917 22.199300  9.366570
16   1  0.7860 16.195300 21.346100 22.085100
17   1  0.7099  6.329090 22.953500  2.858880
18   1  0.7800  1.520930  6.182750 12.042300
19   1  0.7784  5.803370 13.216800  3.871880
20   1  0.8786  7.973210  8.650330  9.023630
21   1  0.8660 10.446000 22.898500  3.437200
22   1  0.7281 13.794200  1.132740 23.064900
23   1  0.9441  8.214180 12.679700  7.362810
24   1  0.7530  8.683290  8.295570 15.972200
25   1  0.8018  9.578060  3.150920  4.013550
26   1  0.7655 13.958300  0.184131 14.375200
27   1  0.7353 12.090000 14.043900  5.634770
28   1  0.5824  9.706030 11.676000 14.872900
29   1  0.7276  0.616923  1.818570 23.213300
30   1  0.6208  2.676010 20.969900 13.516000
31   1  0.8026  3.979650  8.530910  1.806140
32   1  0.8736  0.094905  7.243890 15.350400
33   1  0.7460  4.906380  6.887290 12.682400
34   1  0.6527  3.318040  2.275210 21.322900
35   1  0.8785  1.032250 14.970000  9.215140
36   1  0.8550  3.335830 18.166900 21.922000
37   1  0.7204  6.856480  4.440410  8.665090
38   1  0.7593  7.950980  8.042530 21.817600
39   1  0.7164  6.654590 18.336200  8.991530
40   1  0.7698  3.761650 21.382400  0.639004
41   1  0.8383 10.870400 21.123200  6.819560
42   1  0.7415  7.731880  6.063080 18.328600
43   1  0.7861  8.154440 22.191700 12.112100
44   1  0.8267  8.763620 18.735000 21.277000
45   1  0.7442  0.260750  7.418810  3.301450
46   1  0.6973 15.707900  4.461860 20.419400
47   1  0.7994 16.147600 19.476300  5.776880
48   1  0.8206  1.381350 14.958000 14.076200
49   1  0.8017 14.346100 10.961700  3.522560
50   1  0.7236  2.885940  5.346390 16.325800
51   1  0.7447  3.149850 18.481500  7.612260
52   1  0.7781  5.339920 14.063000 15.786900
53   1  0.7884  7.485400  7.959000  4.600400
54   1  0.6871  9.134920  4.886020 15.460700
55   1  0.7424  6.868540 16.059400 23.802800
56   1  0.6664  4.639970 22.409600 20.277200
57   1  0.7984 13.513800  8.433080  9.922370
58   1  0.8483  2.948240 12.222400 18.381400
59   1  0.7597 11.591800 19.099400  3.595340
60   1  0.8403  6.144380 19.468400 18.165300
61   1  0.8156 11.075700  9.613990  7.163820
62   1  0.6839 10.716000  9.568510 18.458900
63   1  0.6307 14.709300 15.716400  3.287940
64   1  0.7940  9.293440  0.031278 19.393200
65   1  0.7458  2.813060  4.023920  9.202310
66   1  0.7206 14.401800  0.841672  2.115680
67   1  0.7008  8.283980 17.080700  4.877980
68   1  0.8247 16.272600  8.687870 18.689600
69   1  0.7765  6.213790  0.620990  7.963810
70   1  0.7096  1.725520  1.094160  2.040920
71   1  0.6970  5.100510 15.419100  6.004680
72   1  0.7397  2.243630 18.167300 16.005100
73   1  0.8455 15.295600  4.090320 16.136600
74   1  0.8861  9.597930  3.580420 21.250700
75   1  0.6147 11.214900 17.262800  6.270700
76   1  0.8017  7.699840 15.975500 18.568300
77   1  0.7463 16.359400  3.269860  4.342180
78   1  0.8031 12.377600  5.538040 18.736900
79   1  0.6921 13.564500 15.555700  8.146880
80   1  0.8449 16.180100 11.733100 15.516900
81   1  0.8557  4.414190  7.153750  7.597430
82   1  0.9100  3.796190  8.078020 18.308800
83   1  0.6186  3.432330 21.889200  9.576360
84   1  0.6182  5.575340  3.787920 14.980700
85   1  0.8041  4.305060 12.511100  9.759320
86   1  0.8371  3.831310  9.661930 22.372800
87   1  0.6894  7.700010 20.524000  6.639070
88   1  0.6717  6.666640 21.503600 23.518100
89   1  0.8001 11.243300  5.093300  8.506420
90   1  0.6853 12.814000 11.135300 14.241300
91   1  0.7571 16.044800  4.615010  8.839840
92   1  0.8119 12.820800  0.738577 19.378800
93   1  0.7642  0.097350 11.908800  1.115270
94   1  0.6743 13.948300  7.539330 21.467800
95   1  0.7353  5.332630 18.177700  3.351450
96   1  0.9477 16.540600  0.476998 18.023000
97   1  0.7150 14.295300  3.817230 12.306600
98   1  0.7500  5.059250  5.182660 22.439000
99   1  0.8314  2.226670  9.763330 10.764200
100  1  0.7436 15.720900 17.092000  0.130387
101  1  0.8403 10.681600  9.156560 12.404500
102  1  0.7572  7.102170  2.851440  0.183954
103  1  0.6817  5.568200 19.727400 12.761100
104  1  0.7780  9.169520 19.167200  1.070900
105  1  0.7437 11.889100 12.514400  9.932260
106  1  0.7826 12.505100  5.538500  3.018690
107  1  0.7082  5.142880  2.652350 18.481900
108  1  0.7043 12.102600 17.299200  0.696458
109  1  0.8323  0.456750  7.862140  7.465710
110  1  0.5993 15.801400  7.672430  0.154087
111  1  0.7968 13.998100 15.226000 12.202100
112  1  0.7788 16.352000 20.863100  2.332840
113  1  0.7065  1.482360  6.660730 21.227600
114  1  0.8434 12.941700  8.466580 16.215700
115  1  0.8883  6.584780 11.108300  0.177224
116  1  0.7831  3.795110 16.142700 11.159100
117  1  0.6407  0.786967  5.003770  0.257747
118  1  0.7291  7.396640  0.605201 15.608700
119  1  0.8013  3.185510 15.827300  1.318790
120  1  0.7529  7.577680 11.417500 12.219600
121  1  0.6918 10.126600 22.804000 22.871300
122  1  0.6514 10.857600  1.422150 16.012400
123  1  0.8605  9.846420 14.523800  2.054460
124  1  0.6972  9.727360 15.309700 13.838900
125  1  0.7872 13.113100  4.343550 23.852800
126  1  0.6255  8.969180  4.187610 12.058700
127  1  0.8356  1.479720 14.328600  5.276200
128  1  0.8437  0.030147 12.263700 11.501100
129  2 -0.6294  0.476012  4.875340 14.197800
130  2 -0.6356 16.012700  1.183870 20.998900
131  2 -0.4391 16.479600 16.473500  6.844190
132  2 -0.4159 14.090500 17.692100 22.660000
133  2 -0.6528  8.173920  2.110980  9.957030
134  2 -0.3132  5.309940  6.503240  4.609500
135  2 -0.3828  7.737620 15.603400  8.255570
136  2 -0.3909  2.838950 12.706900 21.152100
137  2 -0.6197 12.764000  4.536510 10.355200
138  2 -0.5934  7.204890  3.275210 20.025800
139  2  0.0053 14.499100 19.742200 15.773900
140  2  0.0418 14.672600 18.528500 19.570800
141  2 -0.4580 10.927100  5.852640 13.586000
142  2 -0.8442  1.847140  4.142750 22.143900
143  2 -0.6943 15.384300 14.176900  9.789610
144  2 -0.3194 11.215800 13.309300 17.588700
145  2 -0.5154  9.332810 10.733400  5.325350
146  2 -0.4990 13.913000  1.059310 11.601000
147  2 -0.1670  2.590600  1.501460  6.951730
148  2 -0.6469  4.701930 19.936400 15.778000
149  2 -0.5258 11.934200  0.884320  0.698260
150  2 -0.5343  8.087070  8.643330 11.889500
151  2 -0.6859  2.022200 22.709700 24.077500
152  2 -0.4792 12.308800 15.781000 14.324000
153  2 -0.6727 13.639700  9.443670 18.849100
154  2 -0.6761  3.086940 13.652700 11.891300
155  2 -0.1755 14.240000 22.661000  8.514450
156  2 -0.4660  9.215650 22.306200 16.718400
157  2 -0.6190  3.112040 13.213900  3.537640
158  2 -0.6931 14.859200  6.412500 17.403300
159  2 -0.3172  0.835232 18.548500  2.895830
160  2 -0.2628  0.001850 19.450300 13.764300
161  2 -0.2298 16.149400  8.987340 13.185400
162  2 -0.6636  5.892350 16.866300 20.248700
163  2 -0.7381  6.429990 21.833300  9.651140
164  2 -0.0670 11.053500 16.105200 19.585600
165  2 -0.5556  4.903250  9.539290 11.356500
166  2 -0.1117 12.112200 12.695600 22.206000
167  2 -0.7144  3.680640  1.523190 10.430700
168  2 -0.4587 16.087600 20.855900 19.281500
169  2 -0.4463  2.945510 10.070600  8.218400
170  2 -0.4433  6.491030 10.832900 21.451700
171  2 -0.5296 11.975400  3.498940  4.623800
172  2 -0.6107 13.499100 14.692600  1.032870
173  2 -0.5713  3.222480 12.324500 15.585600
174  2 -0.6350 12.937200  7.014180 24.173900
175  2 -0.4567  0.370313 22.708500 12.025400
176  2 -0.3958  8.725870 19.130700 18.561800
177  2 -0.6880  2.321690  7.249000 23.932700
178  2  0.0418 13.179200 19.524700 12.453200
179  2 -0.3356  2.532530 15.790500 22.333500
180  2 -0.3539  0.591374 10.340900  6.075520
181  2 -0.7182  7.020120  0.844314 22.471000
182  2 -0.8083  7.449980  3.315570 16.686300
183  2 -0.5348  7.429760 11.449300  9.466460
184  2 -0.3940  5.151080 10.021600 17.480100
185  2 -0.5123 12.463800 21.860900  5.086900
186  2 -0.4656 13.913800 22.524300 17.196000
187  2 -0.5838  8.473440 14.351100  5.016670
188  2 -0.3791  3.313640 15.298500 17.751800
189  2 -0.7676 15.131600 22.512700 24.336300
190  2  0.0505 12.254600 19.190700 15.765900
191  2 -0.5036  0.626981 15.355400  2.087500
192  2 -0.6934 15.871500 13.594400 13.446500
193  2 -0.8234  5.751500 18.084800  6.093290
194  2 -0.6759  4.934500  5.551790 18.284900
195  2 -0.2946  3.012020 20.457700  3.559220
196  2 -0.6032 14.656300  2.800880 18.595100
197  2 -0.6838  7.642910 16.492300  1.955290
198  2 -0.3915  1.938160  9.616200 16.529100
199  2 -0.7060  0.643933  3.562090 10.881400
200  2 -0.4168 16.424700  1.252960 15.399700
201  2 -0.7737 10.855500  9.513120  9.652090
202  2 -0.6139  4.477860  7.427100 20.936100
203  2 -0.5357  2.982800 16.663000  4.159170
204  2 -0.5784 10.760300 19.548200 22.913800
205  2 -0.6150 15.120500 13.826400  6.204950
206  2 -0.6998  6.374270  6.794330 14.990300
207  2 -0.7440 15.663300  5.456310  2.443300
208  2 -0.7055 11.377400 22.088300 20.756100
209  2 -0.2635 14.092500  2.567500  7.440400
210  2 -0.5448  2.325250 20.529500 21.644500
211  2 -0.5831  5.525790 10.447200  3.005190
212  2 -0.0048  0.077254 15.407200 20.170100
213  2 -0.9072  8.369170  1.499110 13.132100
214  2 -0.1856  0.418303 18.196600 20.992500
215  2 -0.4216  9.118480 15.018600 11.097800
216  2 -0.0881  9.297300 11.778100 20.150500
217  2 -0.3307  0.396008 18.972600  9.256310
218  2 -0.6062  7.748260  5.548680 22.862700
219  2 -0.5504  2.252470  8.083230  4.921200
220  2 -0.3814 16.384700 13.583900 23.449000
221  2 -0.4858 13.627300  7.286360  7.316040
222  2 -0.7355 13.364800  4.890890 21.507900
223  2 -0.4848  0.190004 11.799500  3.931240
224  2 -0.5774 10.236100  5.934080 20.645600
225  2 -0.6284  9.130120  1.234630  1.855310
226  2 -0.6343  2.444350  7.943970 14.166800
227  2 -0.7931  9.425850 20.075900  4.534600
228  2 -0.5732  0.745580 21.892800 16.456800
229  2 -0.7865  5.806030 23.029400 18.055300
230  2 -0.7330 10.822500  6.736950 16.994600
231  2 -0.4718  9.853750 16.308900 24.079800
232  2 -0.2555  8.160680 19.882300 14.197300
233  2 -0.4949 10.559800  7.530080  4.842740
234  2 -0.8405 11.271100 12.445500 12.478200
235  2 -0.4642  4.627460 13.733100 24.509200
236  2 -0.0028 14.986400 15.107700 19.944000
237  2 -0.4611 15.012900  8.280950  4.364540
238  2 -0.9318 10.930100  9.317730 14.747200
239  2 -0.8631 10.690400 16.347000  3.809400
240  2 -0.3513  0.421669 15.405000 16.459300
241  2 -0.5103 15.558100  6.802050 10.895400
242  2 -0.4109  0.775139  3.480000 17.719600
243  2 -0.5088  6.044690  9.247770  7.283650
244  2 -0.3090  9.550460 11.485200 24.151800
245  2 -0.7371  2.108970  7.259000  9.601800
246  2 -0.5897  8.106000  9.009260  1.900420
247  2 -0.4289  5.162330 22.302100  5.940320
248  2 -0.7026  6.866380 20.379000  1.801580
249  2 -0.6034  8.968500  6.118810  9.897920
250  2 -0.3585  7.554840  5.134200  2.147510
251  2 -0.1212 11.135200 19.377600 12.468500
252  2 -0.5140 13.315500 19.937300  1.116630
253  2 -0.5533 14.193300 11.767800 11.469000
254  2 -0.5566  1.763860  9.211740 20.233100
255  2 -0.5042 13.528300 17.258500 10.194500
256  2 -0.0930 12.655500 19.223600 19.899600
257  2 -0.6313 11.109400  4.465980  1.224330
258  2 -0.6683 15.426200  9.531330 16.285500
259  2 -0.5075  3.417350 18.891900  0.547290
260  2 -0.8432  4.133210  4.202630 12.698700
261  2 -0.6520 12.564500 11.625300  7.055740
262  2 -0.6475  6.965520 11.204000 14.920500
263  2 -0.6610  2.194450  0.798188 19.459400
264  2 -0.7547  4.748860 22.771800 13.700500
265  2 -0.6187  5.757190 12.523800  6.516000
266  2 -0.0291 14.513600 16.455100 16.152600
267  2 -0.5333  0.654045  5.229740  6.505140
268  2 -0.4486 11.628100 22.344600 13.789600
269  2 -0.6735 14.786900  9.786110  1.320820
270  2 -0.3938  7.226270 17.497400 11.466300
271  2 -0.8638 15.980500  2.720270  0.535603
272  2  0.0306 11.785200 16.798600 17.640600
273  2 -0.5132  2.721160  2.233630 15.198100
274  2 -0.1964  6.129800  2.556040  4.612310
275  2 -0.4876  1.311990 10.567700 13.400300
276  2 -0.5579  7.263950 13.000000  1.494660
277  2 -0.6565 12.266900  3.579490 15.585100
278  2 -0.5805 16.738000 23.121800  3.886750
279  2 -0.5920  3.779360 16.250400 14.291300
280  2 -0.6873 14.144500 18.500800  3.718150
281  2 -0.6110 10.628800  2.285900 18.764700
282  2 -0.5205 11.151700 21.141800  1.630950
283  2 -0.5132 13.109100 19.000800  7.099330
284  2 -0.6375 11.726000 12.251000  3.768490
285  2 -0.0250 13.170900 20.946000  9.287540
286  2 -0.4155  0.433488 19.736200 24.095300
287  2 -0.7803  3.703500 18.936500 10.458300
288  2 -0.4750  3.109080 11.039000  0.605477
289  2 -0.5149  4.602720  4.422870  7.175640
290  2 -0.6157  4.725230  1.547310  0.665152
291  2 -0.7579  2.944720 15.584200  7.606930
292  2 -0.4093  5.923310 14.201000 10.925700
293  2 -0.6089  8.654440  0.367066  5.410100
294  2 -0.6429 11.914400  2.193520 21.654000
295  2 -0.7378 10.950900 14.455400  8.082190
296  2 -0.4555  7.488530 16.592200 15.902300
297  2 -0.5022  9.274200  5.488190  6.409950
298  2 -0.5336  7.576430  8.757740 18.457400
299  2 -0.2597  0.286654  1.393840  6.959260
300  2 -0.0226 12.336400 14.566200 22.372800
301  2 -0.2234  2.488940  3.464930  3.929060
302  2 -0.6524 16.008200  9.416420 22.229000
303  2 -0.6676  1.323790 12.583200  8.910790
304  2 -0.3873 -0.121217 11.744500 18.777600
305  2 -0.2903  3.769960  4.873530  1.246220
306  2 -0.6782  1.361250  6.616700 18.239000
307  2 -0.4247  1.895770 20.989600  6.635980
308  2 -0.6022  3.518800 18.583900 18.460900
309  2 -0.6190  5.973200  6.908510  9.739320
310  2 -0.5617  5.843330  8.410330 24.144400
311  2 -0.6883  9.531830 18.906100  8.014670
312  2 -0.6752  6.915950 18.804600 23.475500
313  2 -0.3648 13.628200  8.159130 13.714400
314  2 -0.4899  7.339050 13.318600 17.857000
315  2 -0.3712 10.080000 22.421900 10.223600
316  2 -0.6634  6.833450 20.725800 20.809100
317  2 -0.5646 16.193300  9.793870  9.508640
318  2 -0.3290 11.494600  9.706220 21.503000
319  2 -0.4585  0.715333 16.522800 11.780300
320  2 -0.4000  8.246220 14.787200 21.296300

