Generated by pymatgen.io.lammps.data.LammpsData

504  atoms

  2  atom types

0.000000 17.774667  xlo xhi
0.000000 21.986255  ylo yhi
0.000000 41.650458  zlo zhi

Masses

1  208.9804
2   78.9600

Atoms

1    1  0.6260 14.943000 13.155800 12.454700
2    1  0.6950 -0.073368 18.456300 10.511500
3    1  0.6046 13.677700  8.887450 12.093800
4    1  0.6914 -0.099518 11.926000 11.509300
5    1  0.0849  3.325590 13.495100  8.157950
6    1  0.6688  3.861930 17.652300 10.993500
7    1  0.5645 16.389800 22.294700 10.756600
8    1  0.6694  0.795373  3.462690 11.087900
9    1  0.8068  2.508710  7.612690 11.605700
10   1  0.6788  3.724870 11.568400 10.848600
11   1  0.6042  6.593620 14.999200 11.003600
12   1  0.6698  9.559470 18.684600 10.377300
13   1  0.7924  2.622950 22.040900 11.073700
14   1  0.7427  4.999080  4.171260 10.792100
15   1  0.8186  6.084490  7.773590 11.244600
16   1  0.7823  8.451590 11.069200 11.200300
17   1  0.7436 10.798300 15.085900 10.520000
18   1  0.5604 13.651700 18.494700 10.273600
19   1  0.7576  6.371310 20.233000 11.277100
20   1  0.5587  8.366870  4.393260 10.754700
21   1  0.6516 10.529900  7.948410 11.327000
22   1  0.6123 10.398300  8.348500  7.782000
23   1  0.4573  8.029030  1.170760 10.318000
24   1  0.7573 12.112900  4.817650 11.004900
25   1  0.7634  1.809060 13.847600  2.216330
26   1  0.7666  3.753430 17.484800  3.205520
27   1  0.7154  1.424740  6.673950  2.480190
28   1  0.7028  3.389740  9.817880  0.961953
29   1  0.7267  6.458900 13.466000  1.642280
30   1  0.6557  8.247140 17.479700  1.383000
31   1  0.6295  2.009300 21.476900  2.147950
32   1  0.5652  4.055620  2.495680  1.964810
33   1  0.7645  5.469560  6.358640  1.778870
34   1  0.7690  7.185610  9.943090  1.252610
35   1  0.5459 10.371200 12.910300  1.947140
36   1  0.5978 13.264500 16.994300  2.564190
37   1  0.7777  5.858250 20.989600  2.435000
38   1  0.5344  7.702080  2.865990  2.358740
39   1  0.7414  9.602470  6.891550  1.176700
40   1  0.6132 11.562000 10.019200  1.775990
41   1  0.6850 14.677300 13.551800  2.071190
42   1  0.8019 -0.247830 17.841400  0.923973
43   1  0.7398 10.979700  0.536490  2.493910
44   1  0.5669 12.580900  3.358190  2.322670
45   1  0.6806 15.749000  6.311980  2.569480
46   1  0.7637 15.920800  9.799020  1.774440
47   1  0.7316 14.778000 21.285400  2.385710
48   1  0.5357 16.957900  1.658900  2.462260
49   1  0.1478  3.145080 11.777300  5.948740
50   1  0.1676  4.703880 16.071900  8.143770
51   1  0.1457  1.784190  7.074560  5.529930
52   1  0.2220  1.408570  7.947050  8.571420
53   1  0.3656  6.483260 11.463200  5.968410
54   1  0.4823  6.045360 17.425200  5.565630
55   1  0.4189  0.829955 21.284500  7.066470
56   1  0.2265  0.041387  2.964820  7.348510
57   1  0.4652  5.269690  6.250100  6.138700
58   1  0.5863 12.520300 11.616700  4.379940
59   1  0.7745 12.946000 15.090400  6.252800
60   1  0.6072 14.221500 19.992500  6.272450
61   1  0.5318  3.937320 21.804700  5.856560
62   1  0.5363  9.083840  4.376960  7.381650
63   1  0.6167 11.965400  8.050510  4.732180
64   1  0.4375  0.273283 11.199700  5.031420
65   1  0.1010  0.892709 13.892500  7.028940
66   1  0.4021 10.345600 16.946600  3.766730
67   1  0.7602  6.957100 20.087400  7.439110
68   1  0.6559 11.221000 21.373500  6.197640
69   1  0.0971 17.187300  8.823990  6.549800
70   1  0.2528 14.952100  6.496910  5.748230
71   1  0.5351 12.618300  0.784696  8.417280
72   1  0.6216 11.656100  0.807111 11.281000
73   1  0.1656  4.024770  8.888040  6.172590
74   1  0.2892  1.699220 16.617700  8.339600
75   1  0.4192  5.715780  3.071250  5.207280
76   1  0.5095  8.427610 14.770100  4.787430
77   1  0.7069 14.456400 11.568800  8.787410
78   1  0.3963  7.953240  1.442220  7.637800
79   1  0.2158  3.841610 15.503600  5.451410
80   1  0.4238  4.538590  2.255800  7.863910
81   1  0.4648  6.970000  8.294070  5.743980
82   1  0.4882  6.137150  9.427520  8.150950
83   1  0.3175  7.137440 14.632900  7.416980
84   1  0.4464 17.023500 16.282500  5.941820
85   1  0.1816  1.226040  1.664470  4.973200
86   1  0.6413  9.931970  4.818140  4.017650
87   1  0.3209 15.087900  4.475370  7.830770
88   1  0.1618  1.136230 11.247100  8.518810
89   1  0.5921 15.533700 16.135100  8.751830
90   1  0.5819  1.510930 18.578300  5.640130
91   1  0.6154 10.015800 18.391600  7.312940
92   1  0.3786 13.034100  3.623240  5.570870
93   1  0.0591  0.034145  6.000200  7.364010
94   1  0.3368 15.522200  7.794680  8.850740
95   1  0.3986 15.798200  0.603522  7.141750
96   1  0.2002  2.563770  4.447600  5.958510
97   1  0.7817  1.687470 13.597100 25.483900
98   1  0.7946  3.405260 16.714000 25.268200
99   1  0.8037  1.570210  5.656440 25.865100
100  1  0.7701  3.633510  9.119420 25.340000
101  1  0.7843  5.583990 13.164000 25.860000
102  1  0.8051  8.083670 16.664500 25.830300
103  1  0.5767  1.882030 20.813600 25.487400
104  1  0.7980  3.927470  1.761130 25.561200
105  1  0.7493  6.426000  5.848430 25.428400
106  1  0.8006  8.517330  9.023200 26.263700
107  1  0.7668 10.918200 13.917300 25.318900
108  1  0.6028 13.086600 16.096500 25.630200
109  1  0.8621  5.769230 20.074400 25.600300
110  1  0.8880  8.252380  2.465570 26.284400
111  1  0.8654 10.852400  5.656270 25.520200
112  1  0.8283 11.969100  9.927290 24.424800
113  1  0.7646 15.406300 13.208400 25.422700
114  1  0.8011 17.215700 17.419700 24.721900
115  1  0.6814 10.293000 19.412700 25.201700
116  1  0.6866 12.912700  1.962850 25.815700
117  1  0.7872 14.477600  5.820770 25.354600
118  1  0.8326 -0.438231  9.386040 25.524500
119  1  0.7623 13.843800 20.384800 25.145700
120  1  0.7235 -0.234844  2.273970 25.486300
121  1  0.9062 -0.117964 16.009200 13.819800
122  1  0.8772  2.924140 18.582500 15.016900
123  1  0.7989 17.337100  7.791210 14.816000
124  1  0.7994  1.676050 12.261900 15.011700
125  1  0.7507  4.738500 15.193200 14.897500
126  1  0.7685  6.814320 18.877100 15.116600
127  1  0.7672  0.903997  1.102100 14.604600
128  1  0.8751  2.651570  4.780270 14.232800
129  1  0.6493  3.732380  8.696590 14.725600
130  1  0.7402  5.931130 11.660400 16.068900
131  1  0.8631  9.397090 16.526400 13.720100
132  1  0.8137 11.455700 20.142500 13.097500
133  1  0.8391  4.891320  0.604039 14.127900
134  1  0.8367  6.600400  4.957240 14.639800
135  1  0.8124  9.043710  8.484230 14.936700
136  1  0.7638 11.776000 12.272900 14.405500
137  1  0.7811 13.130500 16.521400 14.110900
138  1  0.8301 15.383300 19.902300 14.027800
139  1  0.8557  8.519410  1.334030 13.765700
140  1  0.7715 10.535400  4.808130 14.565200
141  1  0.7163 12.945300  8.767830 15.691800
142  1  0.7542 15.430300 12.513600 15.899900
143  1  0.5109 14.072300  0.835177 15.710800
144  1  0.4989 15.682000  4.092530 15.458100
145  1  0.4474  4.261980 11.557500 21.050500
146  1  0.2809  4.217620 21.390000 21.114200
147  1  0.1108  1.638080  5.355880 19.567300
148  1  0.4643  0.989969  8.188720 18.140400
149  1  0.3345  6.405500 15.409200 21.354800
150  1  0.2167  4.758470 19.037700 19.447900
151  1  0.3150  0.682570  0.469132 18.420900
152  1  0.1272  7.049110  3.059420 19.635900
153  1  0.0968  6.782900  6.532800 19.620400
154  1  0.3860  8.129480 11.078700 21.753900
155  1  0.2651  8.688650 13.215000 19.666900
156  1  0.2943 12.085800 18.851900 20.065200
157  1  0.1868  7.154790 19.962500 20.857600
158  1  0.4475  4.189000  5.964130 17.272100
159  1  0.3390  8.633840  5.214600 18.171900
160  1  0.4695 10.686600 10.020900 19.048700
161  1  0.1299 14.245500 15.896300 19.163700
162  1  0.2769  0.290645 18.355300 18.357200
163  1  0.1437 14.473900  1.449680 19.326100
164  1  0.2079 14.874100  4.576840 19.442400
165  1  0.2843 16.852500 13.010300 18.700600
166  1 -0.0053 17.098100 16.248800 20.316600
167  1  0.4937 16.605200 19.609300 22.157800
168  1  0.0847 -0.269009  3.216550 20.518500
169  1  0.2717  3.964790 15.839800 19.278000
170  1  0.2417  6.779270 22.139200 18.525500
171  1  0.4318 16.810500 12.542400 21.739700
172  1  0.3405  2.144050 15.508800 22.007600
173  1  0.1349  1.612330 19.610900 20.789900
174  1  0.2117  9.281250 17.710100 21.246800
175  1  0.1298  2.364720  2.212680 20.177400
176  1  0.1386  4.508070  4.335490 19.856000
177  1  0.1618  3.903270  7.306100 20.553800
178  1  0.2196  7.463570 17.470000 18.627800
179  1  0.3281 14.587100 15.423800 22.033600
180  1  0.1861 12.482800  3.669140 17.656100
181  1  0.2333  9.815370 19.404100 18.228600
182  1  0.3277  7.190270  9.605880 18.754200
183  1  0.2384  8.832870  4.721710 21.267000
184  1  0.1284 11.127800 16.010000 19.481000
185  1  0.2983 15.325700 18.604300 18.933600
186  1  0.1991  0.629326  0.759267 21.603300
187  1  0.1536  9.375750  0.722664 19.955000
188  1  0.2069 11.465600  4.133060 20.244700
189  1  0.3509 11.265900 12.633600 21.491000
190  1  0.1478  1.452950 14.292800 19.139300
191  1  0.1468 16.760500  2.721600 17.973800
192  1  0.3586  0.537765  6.927090 21.558800
193  1  0.4790  1.324710 15.801800 39.737800
194  1  0.6616  3.800790 19.892300 39.808500
195  1  0.6168  0.322424  9.049540 39.447900
196  1  0.6239  3.619020 12.468100 40.953100
197  1  0.6806  4.950500 16.735100 40.547700
198  1  0.8500  7.872150 20.156100 40.612000
199  1  0.7572  1.516730  1.164690 40.703400
200  1  0.9257  3.635450  5.090420 40.430900
201  1  0.6583  3.937970  8.275240 39.180600
202  1  0.7629  8.464480 12.998700 40.173200
203  1  0.7699 10.550300 16.566100 40.478800
204  1  0.8669 12.274300 20.354100 40.873300
205  1  0.8509  5.930980  1.386700 40.684800
206  1  0.7471  8.118920  5.358880 39.322300
207  1  0.6810  9.982110  8.543150 39.257800
208  1  0.8577 12.300100 12.473000 40.193100
209  1  0.7929 14.599300 16.518200 40.726400
210  1  0.7875 16.973700 20.520800 39.890000
211  1  0.7540 10.231000  1.742970 39.989500
212  1  0.7385 12.578700  5.479660 39.850900
213  1  0.7963 14.316500  9.054780 39.966300
214  1  0.6856 16.805100 13.177100 39.648300
215  1  0.7740 14.400100  1.753990 40.600200
216  1  0.8785 17.030200  4.974400 40.385200
217  1  0.8141 17.243000 14.307700 29.188900
218  1  0.7713  2.346900 18.019900 29.363900
219  1  0.7568 17.417900  6.939640 28.782500
220  1  0.8497  1.698890 10.683700 29.184300
221  1  0.7823  3.970540 13.827900 29.166800
222  1  0.8837  6.207400 17.696000 29.254200
223  1  0.7317 -0.044088 21.289000 28.822200
224  1  0.8639  1.880370  2.766370 29.240700
225  1  0.8481  3.543310  6.772800 29.172600
226  1  0.8328  5.841400 10.621300 29.342300
227  1  0.8605  8.046790 13.694300 29.094800
228  1  0.6525 10.477700 18.060400 29.235200
229  1  0.6813  3.835080 21.629300 28.485900
230  1  0.6525  6.058360  3.762770 29.340100
231  1  0.7199  7.886940  6.974680 29.321300
232  1  0.8310 10.840800 10.591200 29.005100
233  1  0.8200 12.699900 14.358700 29.040100
234  1  0.8758 15.897900 17.562300 28.546300
235  1  0.8749  8.184240 21.447200 28.908400
236  1  0.8033 10.877100  3.284170 29.006500
237  1  0.8689 12.970200  7.105110 28.520500
238  1  0.7214 15.067800 10.487200 28.606800
239  1  0.7571 12.741500 21.253800 28.983200
240  1  0.8279 14.988200  2.850240 28.629400
241  1  0.2228  7.811530 16.078700 33.488300
242  1  0.2490  5.567740  0.545816 32.634600
243  1  0.0216  0.540054  6.363610 34.994800
244  1  0.3707 -0.362085 16.981300 33.801800
245  1  0.1352  9.565530 15.613000 36.275400
246  1  0.1764 10.541500 18.481300 36.129800
247  1  0.0285  7.202290 18.383000 35.230100
248  1  0.2562  5.762830  2.971160 34.958800
249  1  0.2940  2.757630  8.579190 35.359900
250  1  0.0376 11.079200 13.295300 34.360400
251  1  0.3724 12.678500 15.771400 37.054700
252  1  0.0351 13.382000 17.679100 34.687000
253  1  0.2711  7.537610 20.432400 32.599100
254  1  0.5637  8.516860  5.903140 33.273100
255  1  0.1898 10.956500 10.134500 33.931800
256  1  0.2552 14.562700 12.377200 35.926100
257  1  0.0766 13.959900 14.675500 34.047200
258  1  0.2037  3.098530 20.568600 33.328700
259  1  0.2560 12.201800 21.351200 35.306000
260  1  0.6983 12.767100  5.262550 32.093900
261  1  0.1965 16.345900  8.412600 35.812600
262  1  0.1614 14.649200 10.418800 33.538200
263  1  0.1134  1.697230  0.274398 35.484700
264  1  0.1352  3.144470  2.368700 33.626700
265  1  0.3381 16.720300 13.327500 33.807500
266  1  0.1920 -0.170193 20.398600 33.647200
267  1  0.4569  2.037770  7.701540 32.362700
268  1  0.4679  1.438870 11.281800 36.488200
269  1  0.2621  1.336390 19.051000 36.166300
270  1  0.3739  4.167000 17.118100 34.360400
271  1  0.0969  4.406790 19.642000 35.987700
272  1  0.4023  2.235630  3.563160 36.747300
273  1  0.2354  8.575430 11.530400 34.062700
274  1  0.2585  7.487580 13.809300 35.427800
275  1  0.1042 10.864900 16.292100 33.518100
276  1  0.1783 11.366400 19.741000 32.983600
277  1  0.2452  3.391020  5.082770 34.119800
278  1  0.1659  6.633620 21.625400 35.682500
279  1  0.5545  5.935950  9.053450 33.964400
280  1  0.3490 10.348400 11.755900 36.612400
281  1  0.2087 16.303200 15.245100 36.134800
282  1  0.1787 14.577500 20.515000 33.756300
283  1  0.2443  8.429610  1.876850 33.837700
284  1  0.2296 15.839800  0.569481 35.120500
285  1  0.2716 12.939900  8.184510 34.728200
286  1  0.2156 15.854400  7.504300 32.865700
287  1  0.1467 -0.141377  3.200400 34.699000
288  1  0.3452 15.476400  5.206550 35.464600
289  2 -0.6812 16.687700 15.111600  0.614636
290  2 -0.6724  1.890560 18.858400 41.564100
291  2 -0.6484 16.787500  7.696460  0.377111
292  2 -0.7388  0.762421 11.454100 40.907300
293  2 -0.7180  3.345400 15.159100  0.499563
294  2 -0.6855  5.943850 18.629300  1.020220
295  2 -0.8190 16.846000 21.967400  0.410808
296  2 -0.6735  1.841080  3.508560  0.424383
297  2 -0.7448  3.113020  7.312820  0.425905
298  2 -0.6211  5.935080 10.869000 40.591700
299  2 -0.7551  7.759700 15.171100 41.382500
300  2 -0.7510 10.531100 18.845300  0.389157
301  2 -0.8818  4.431080 22.022600  0.627176
302  2 -0.7562  5.882360  4.262240  0.018027
303  2 -0.6476  7.461660  7.390790 41.134700
304  2 -0.7921  9.936300 10.786200 41.766600
305  2 -0.8267 12.791500 14.877000  0.615079
306  2 -0.6552 14.972400 18.825100  0.865904
307  2 -0.7555  8.314240  0.434597  0.379672
308  2 -0.7995 10.092700  4.580290 41.208400
309  2 -0.7115 11.973200  7.679430 41.416400
310  2 -0.7459 13.948500 11.268900  0.001664
311  2 -0.8924 12.884700  0.696618  0.556699
312  2 -0.6788 14.738600  4.250420  0.706331
313  2 -0.7947  1.488190 16.307400  3.773340
314  2 -0.7762  3.524450 20.244100  3.757890
315  2 -0.6946  0.983977  9.367310  3.219230
316  2 -0.7013  4.306240 12.430300  3.543750
317  2 -0.7950  6.178470 15.693600  3.096870
318  2 -0.6787  8.177510 19.289900  5.251230
319  2 -0.6285  0.044580 20.442500  3.791980
320  2 -0.8705  3.400340  4.622260  3.282710
321  2 -0.7215  4.986610  9.147020  2.805560
322  2 -0.7526  8.220340 12.354100  3.609580
323  2 -0.8891 11.617900 14.416200  4.132460
324  2 -0.6300 12.086100 20.251000  3.520580
325  2 -0.7443  6.635730  0.490454  5.154320
326  2 -0.8018  7.129600  5.205150  4.546530
327  2 -0.6417  9.154850  9.031660  3.089240
328  2 -0.6576 14.546100 12.593300  5.788570
329  2 -0.5622 15.544400 18.154000  4.374370
330  2 -0.7469  4.363860 19.089100  6.698320
331  2 -0.7764  9.810150  1.759840  4.312880
332  2 -0.7477 12.146700  6.108410  2.730960
333  2 -0.8825 14.523300  8.899170  4.510420
334  2 -0.5925 17.177300 12.226500  2.624570
335  2 -0.8551 13.490900  0.616507  5.509700
336  2 -0.8779 16.582200  4.031970  3.924680
337  2 -0.6256  0.340390 15.753600 10.724500
338  2 -0.6535  2.638370 19.827700  9.517670
339  2 -0.6416 -0.277612  8.860730 11.425900
340  2 -0.7835 16.264700 13.142200  9.581190
341  2 -0.8549  7.019040 18.232700  9.354540
342  2 -0.9369  9.815880 20.742200  8.437740
343  2 -0.8952  1.940580  1.668360  8.866950
344  2 -0.7434  2.916470  5.343780 10.127700
345  2 -0.9377  3.940330  9.086340  9.742890
346  2 -0.8252  6.367910 12.242300  9.526070
347  2 -0.6949  9.825400 15.397300  7.776520
348  2 -0.8211 12.945000 17.725400  7.911940
349  2 -0.7589  5.352050  0.531472  9.983290
350  2 -0.8063  6.607880  5.371250  8.095680
351  2 -0.7856  7.972330  8.173510  9.701840
352  2 -0.3841 11.186500 11.816300  7.655380
353  2 -0.5015 13.440400 14.425900  9.081720
354  2 -0.8651 16.800700 18.929100  7.803060
355  2 -0.8360 11.380500  3.485660  8.889290
356  2 -0.8121  9.798660  6.860430  5.804030
357  2 -0.8684 12.718700  8.138430  9.768920
358  2 -0.5796 12.426800 12.084300 11.189900
359  2 -0.7821 14.767400  1.735870  9.339950
360  2 -0.4204 14.990700  5.011660 10.996100
361  2 -0.7499 17.206300 13.136700 13.844300
362  2 -0.5606  2.254780 16.904800 12.901300
363  2 -0.5836  0.594878  5.978620 12.972400
364  2 -0.7269  2.332530 10.497000 13.034000
365  2 -0.6996  4.079100 14.150200 11.512800
366  2 -0.7463  6.671980 16.922400 13.361800
367  2 -0.6265  0.394909 20.723700 12.844300
368  2 -0.7752  2.635320  2.245240 12.868800
369  2 -0.7902  4.683650  6.205980 12.822100
370  2 -0.5771  6.789630 10.020200 13.636900
371  2 -0.5542  9.215720 13.865000 12.654700
372  2 -0.9373 11.260500 17.448600 12.045600
373  2 -0.7138  4.376240 20.202100 13.121300
374  2 -0.8393  6.754210  2.753190 12.311200
375  2 -0.7488  8.553660  6.639820 12.749200
376  2 -0.7096 10.290800 10.180800 13.126600
377  2 -0.5606 11.459300 14.760600 15.262700
378  2 -0.7339 15.752400 17.830800 12.552700
379  2 -0.8222  8.830770 20.545000 12.128300
380  2 -0.7538 10.249600  3.026410 12.472600
381  2 -0.5816 12.938200  5.890610 13.742400
382  2 -0.6669 15.306600 10.291400 14.175000
383  2 -0.7998 13.725800 21.188600 12.089900
384  2 -0.4401 14.119500  2.497440 13.166000
385  2 -0.7174 14.810700 15.190200 15.567700
386  2 -0.4763  0.336926 18.587600 15.463000
387  2 -0.5029 11.908300  9.216670 21.391900
388  2 -0.6727 -0.451517 11.013100 16.980600
389  2 -0.6775  1.912690 14.851900 15.805600
390  2 -0.7997  4.945890 17.541200 16.922700
391  2 -0.7203 16.704200 21.472500 16.204600
392  2 -0.7462  0.978739  3.320670 16.071200
393  2 -0.8148  1.897970  6.454060 16.197200
394  2 -0.7430  3.576670 10.174800 17.133500
395  2 -0.5043  7.048170 14.742600 16.819200
396  2 -0.5798  9.757650 18.655700 15.084800
397  2 -0.6285  2.756760 20.721200 17.118600
398  2 -0.6460  4.737830  3.410200 16.171100
399  2 -0.8185  7.288470  7.021020 16.376300
400  2 -0.7896  5.841430 12.159800 18.961900
401  2 -0.4238  9.088710 11.732900 15.835100
402  2 -0.5541 12.974900 19.038600 15.541700
403  2 -0.6864  6.859060 21.663500 15.430200
404  2 -0.6994  8.746280  3.408810 15.889700
405  2 -0.7442 11.002800  7.283380 16.661700
406  2 -0.6598 12.796500 11.560000 17.142200
407  2 -0.5398 11.203900  0.419813 15.454100
408  2 -0.6274 15.209200  6.848310 17.064000
409  2 -0.8364 17.024000 14.650400 23.448900
410  2 -0.8615  1.933110 18.534100 23.654200
411  2 -0.6475 17.130600  6.841420 24.207300
412  2 -0.6299  1.583710 10.881600 23.729700
413  2 -0.7813  3.766130 14.432400 23.987200
414  2 -0.6227  6.115940 18.169300 23.497500
415  2 -0.5939 16.219400 21.833100 23.723100
416  2 -0.6268  2.634760  3.563290 24.151100
417  2 -0.6214  3.864910  6.588380 23.999100
418  2 -0.5595  6.252210 10.023700 24.577100
419  2 -0.5951  8.216210 14.396700 24.522600
420  2 -0.7780  9.804140 17.277600 23.820200
421  2 -0.6230  4.843890  0.226226 23.497500
422  2 -0.5017  6.619040  3.063090 24.468600
423  2 -0.6475  8.645960  7.141700 24.222300
424  2 -0.6036  9.738750 11.502600 24.146100
425  2 -0.7506 12.895800 13.029400 23.903000
426  2 -0.7005 14.466200 17.761700 23.986300
427  2 -0.4247  8.639500 21.453500 24.131900
428  2 -0.5624 10.873200  2.322420 24.203900
429  2 -0.5029 12.354500  6.660210 23.771600
430  2 -0.4774 15.542100 10.303900 23.979000
431  2 -0.7259 14.112500 20.099500 21.070800
432  2 -0.6097 15.017000  3.494190 23.953100
433  2 -0.6613  1.669540 15.881800 27.450900
434  2 -0.8141  4.049040 18.912700 27.435900
435  2 -0.7873  1.925170  7.957650 27.515300
436  2 -0.7963  3.591920 11.761200 27.349000
437  2 -0.7222  5.481110 15.460900 27.314900
438  2 -0.7579  7.729230 19.041600 27.379500
439  2 -0.9471  1.643050  0.935529 27.366600
440  2 -0.7100  3.689830  4.740970 27.406000
441  2 -0.7598  5.657900  8.261830 28.418200
442  2 -0.6825  7.859870 11.389900 27.556500
443  2 -0.6843 10.332900 15.196600 27.934800
444  2 -0.7800 12.709700 18.813900 27.121200
445  2 -0.6399  6.177090  0.595447 26.759400
446  2 -0.7808  8.805900  5.161860 27.163900
447  2 -0.7036 11.030600  8.043980 26.833000
448  2 -0.7030 12.454400 12.504900 27.196100
449  2 -0.7162 16.153400 15.641600 26.776900
450  2 -0.6591 17.018800 19.282000 26.695100
451  2 -0.6554 10.589600  0.676014 27.305700
452  2 -0.8589 12.497900  4.695820 27.424600
453  2 -0.7443 15.047400  8.241540 26.883100
454  2 -0.7511 17.500700 11.875800 26.782800
455  2 -0.6742 15.135500  0.414639 27.301900
456  2 -0.7009 17.256200  3.905300 27.513500
457  2 -0.4838  1.642170 12.873100 30.863900
458  2 -0.5613  4.310540 16.676300 30.502400
459  2 -0.7050  1.898420  5.106300 30.863600
460  2 -0.6102  3.624920  9.708110 30.795800
461  2 -0.6801  6.529660 12.702500 30.824000
462  2 -0.6639  8.143660 16.270300 30.606700
463  2 -0.7178  1.941910 18.349700 32.584200
464  2 -0.8066  3.976700  1.432120 30.437800
465  2 -0.6843  6.146890  5.913990 31.528100
466  2 -0.5927  8.963070  9.170650 31.099300
467  2 -0.5760 10.525600 12.727300 30.366400
468  2 -0.6251 12.754900 16.727900 30.629400
469  2 -0.7831  6.483660 20.362400 30.466200
470  2 -0.6870  8.312930  2.060550 29.128200
471  2 -0.6292 10.625400  5.826600 30.506000
472  2 -0.6964 12.982200  9.024300 30.161400
473  2 -0.6997 15.081300 12.671200 30.152400
474  2 -0.6545 17.062800 16.452000 30.342100
475  2 -0.6895 10.776600 21.758900 30.484700
476  2 -0.5368 13.247200  2.673830 31.078700
477  2 -0.6280 14.923800  5.462010 29.940700
478  2 -0.7572  0.338953  8.850300 30.523200
479  2 -0.5557 15.384800 19.919700 30.122400
480  2 -0.5531 17.055900  1.589810 30.609800
481  2 -0.5603  4.537190 10.194800 36.642300
482  2 -0.5184  1.666830 13.670700 34.563400
483  2 -0.7133  1.678660  6.310440 38.797600
484  2 -0.5377  8.180210 10.583400 38.239700
485  2 -0.5629  4.174730 14.051900 38.351300
486  2 -0.6262  7.552730 17.664400 39.068900
487  2 -0.7539  1.578890 21.294900 38.595100
488  2 -0.5458  3.548110  2.186030 38.884500
489  2 -0.5319  5.203210  5.820630 38.544300
490  2 -0.6532  6.129260  6.328750 35.040700
491  2 -0.7801 10.866300 14.139700 38.686700
492  2 -0.6360 12.535500 17.788600 39.098600
493  2 -0.6376  6.352080 21.582400 38.818800
494  2 -0.5122  8.239900  2.406310 38.071500
495  2 -0.6936 12.301500  5.446270 35.012000
496  2 -0.7385 12.274500 10.069800 38.007200
497  2 -0.6661 14.327700 13.995900 38.919300
498  2 -0.7729 17.091500 17.979900 38.468000
499  2 -0.5116 10.112900 21.018200 38.899900
500  2 -0.5116 12.784100  3.326260 38.249300
501  2 -0.6214 15.723400  6.722400 38.900300
502  2 -0.8283 16.520700 10.823100 37.549100
503  2 -0.5867 13.977700 21.587600 38.808100
504  2 -0.6363 17.278000  3.479520 38.485800

