Generated by pymatgen.io.lammps.data.LammpsData

320  atoms

  2  atom types

0.000000 16.364759  xlo xhi
0.000000 23.030442  ylo yhi
0.000000 24.472453  zlo zhi

Masses

1  208.9804
2   78.9600

Atoms

1    1  0.8196  1.122260 11.224100 10.537100
2    1  0.8211  1.117790 11.227200 22.767200
3    1  0.8209  1.116810 22.738200 10.534100
4    1  0.8202  1.123260 22.736300 22.770300
5    1  0.8199  5.206330 11.226300 10.535400
6    1  0.8195  5.204690 11.225100 22.771100
7    1  0.8214  5.206860 22.736500 10.532400
8    1  0.8194  5.205080 22.734700 22.770300
9    1  0.8201  9.305100 11.221500 10.537300
10   1  0.8198  9.301840 11.219200 22.773000
11   1  0.8193  9.299500 22.735100 10.534000
12   1  0.8209  9.312000 22.737700 22.771100
13   1  0.8201 13.389300 11.225700 10.533800
14   1  0.8198 13.389000 11.224200 22.775600
15   1  0.8206 13.393000 22.739900 10.527100
16   1  0.8191 13.384200 22.734500 22.772700
17   1  0.8210  3.176670  0.476847  1.713060
18   1  0.8211  3.162010  0.486064 13.950400
19   1  0.8215  3.162900 11.999600  1.716100
20   1  0.8206  3.162710 11.998200 13.948500
21   1  0.8226  7.240870  0.481870  1.714670
22   1  0.8204  7.257080  0.485279 13.945500
23   1  0.8210  7.250890 12.003400  1.712190
24   1  0.8198  7.252350 11.999700 13.946900
25   1  0.8218 11.355500  0.480192  1.712380
26   1  0.8215 11.344600  0.480536 13.946000
27   1  0.8201 11.350200 11.999500  1.715950
28   1  0.8199 11.343400 11.998300 13.951700
29   1  0.8219 15.426700  0.482310  1.713760
30   1  0.8209 15.438600  0.484158 13.948900
31   1  0.8208 15.437700 12.004300  1.717070
32   1  0.8203 15.433800 11.995900 13.947400
33   1  0.8200  3.167680  5.466730  7.817410
34   1  0.8191  3.167340  5.462760 20.062800
35   1  0.8215  3.158690 16.980800  7.818730
36   1  0.8206  3.171750 16.986300 20.054200
37   1  0.8188  7.254770  5.460400  7.818860
38   1  0.8203  7.248840  5.463220 20.054100
39   1  0.8196  7.255990 16.980200  7.820900
40   1  0.8201  7.244830 16.978300 20.056700
41   1  0.8192 11.346500  5.466970  7.817980
42   1  0.8196 11.346100  5.462730 20.059800
43   1  0.8194 11.339100 16.977200  7.819780
44   1  0.8212 11.354900 16.988300 20.055600
45   1  0.8204 15.433900  5.463720  7.819450
46   1  0.8193 15.437500  5.466180 20.062500
47   1  0.8212 15.440200 16.982900  7.821340
48   1  0.8219 15.428300 16.983400 20.058200
49   1  0.8212  1.119680  6.242550  4.405730
50   1  0.8212  1.115410  6.237400 16.645600
51   1  0.8219  1.121300 17.751100  4.405020
52   1  0.8205  1.121040 17.764200 16.635200
53   1  0.8208  5.204970  6.238070  4.405100
54   1  0.8202  5.213540  6.241590 16.647900
55   1  0.8217  5.205480 17.755700  4.403110
56   1  0.8192  5.205720 17.759400 16.646100
57   1  0.8200  9.303850  6.247330  4.406420
58   1  0.8199  9.297200  6.238700 16.644900
59   1  0.8207  9.304120 17.760900  4.409980
60   1  0.8209  9.303250 17.760900 16.637800
61   1  0.8205 13.384600  6.239960  4.400960
62   1  0.8207 13.395600  6.238810 16.645300
63   1  0.8216 13.388100 17.752700  4.403500
64   1  0.8208 13.383900 17.756900 16.644600
65   1  0.8620  1.116460  2.104190  6.110620
66   1  0.8611  1.117290  2.106310 18.351800
67   1  0.8622  1.116080 13.609500  6.107100
68   1  0.8620  1.110470 13.634000 18.341900
69   1  0.8610  5.205370  2.100380  6.100920
70   1  0.8616  5.210120  2.103720 18.360200
71   1  0.8617  5.210680 13.622300  6.100020
72   1  0.8614  5.210780 13.616200 18.359900
73   1  0.8622  9.299790  2.117200  6.116800
74   1  0.8612  9.307630  2.102680 18.351100
75   1  0.8607  9.300920 13.622600  6.118800
76   1  0.8624  9.303040 13.627100 18.345200
77   1  0.8614 13.398500  2.105130  6.103430
78   1  0.8616 13.391400  2.094050 18.357000
79   1  0.8611 13.399900 13.629700  6.101010
80   1  0.8611 13.395900 13.609800 18.349600
81   1  0.8620  3.164720  9.610730  6.125790
82   1  0.8624  3.158850  9.594890 18.356600
83   1  0.8624  3.169340 21.118800  6.122750
84   1  0.8608  3.153290 21.113700 18.356100
85   1  0.8626  7.249780  9.600140  6.116010
86   1  0.8610  7.257590  9.592990 18.355100
87   1  0.8620  7.251480 21.111900  6.115720
88   1  0.8619  7.259240 21.107500 18.355500
89   1  0.8626 11.351600  9.608410  6.114730
90   1  0.8613 11.346500  9.601390 18.364000
91   1  0.8616 11.348100 21.121700  6.118810
92   1  0.8610 11.345100 21.111300 18.366300
93   1  0.8622 15.436200  9.605260  6.123120
94   1  0.8614 15.439400  9.595010 18.362200
95   1  0.8625 15.434000 21.113100  6.124840
96   1  0.8613 15.443800 21.110100 18.356600
97   1  0.8611  3.160710  7.861210 12.233900
98   1  0.8613  3.159240  7.855670  0.008730
99   1  0.8613  3.158790 19.375900 12.242800
100  1  0.8602  3.166920 19.379600  0.010423
101  1  0.8620  7.257040  7.865150 12.234600
102  1  0.8609  7.252920  7.864140  0.013269
103  1  0.8611  7.261590 19.375200 12.231800
104  1  0.8620  7.248350 19.383300  0.006923
105  1  0.8607 11.346800  7.859130 12.239700
106  1  0.8608 11.341000  7.854480  0.009452
107  1  0.8612 11.341800 19.372700 12.245300
108  1  0.8612 11.353400 19.378000  0.010054
109  1  0.8601 15.434800  7.865200 12.237500
110  1  0.8620 15.444400  7.867370  0.014069
111  1  0.8608 15.440500 19.376100 12.236700
112  1  0.8612 15.436000 19.385800  0.005676
113  1  0.8622  1.119710  3.839270 24.460600
114  1  0.8611  1.116640  3.839970 12.235900
115  1  0.8617  1.114980 15.361600 24.473000
116  1  0.8621  1.118730 15.352800 12.234100
117  1  0.8631  5.210040  3.856210 24.470600
118  1  0.8618  5.207750  3.832630 12.226000
119  1  0.8622  5.210330 15.357800 24.472300
120  1  0.8618  5.206400 15.354300 12.225600
121  1  0.8635  9.307620  3.833570 24.464000
122  1  0.8617  9.299000  3.843110 12.235400
123  1  0.8618  9.298290 15.363100 24.471200
124  1  0.8620  9.299990 15.359000 12.237700
125  1  0.8622 13.385300  3.859220 24.467200
126  1  0.8615 13.396100  3.837450 12.223500
127  1  0.8621 13.393900 15.360800 24.469600
128  1  0.8617 13.397800 15.356900 12.224600
129  2 -0.5118  1.122340  3.580130  8.619850
130  2 -0.5127  1.116050  3.571010 20.866900
131  2 -0.5114  1.119300 15.096700  8.619190
132  2 -0.5109  1.117200 15.096500 20.853000
133  2 -0.5127  5.204490  3.570800  8.615770
134  2 -0.5149  5.210730  3.581590 20.865800
135  2 -0.5118  5.204080 15.092400  8.619880
136  2 -0.5153  5.206280 15.095200 20.858600
137  2 -0.5132  9.307760  3.575250  8.626610
138  2 -0.5129  9.295550  3.574070 20.858100
139  2 -0.5144  9.297600 15.091400  8.622360
140  2 -0.5106  9.306350 15.094300 20.858400
141  2 -0.5121 13.393700  3.569580  8.619980
142  2 -0.5135 13.391200  3.583490 20.870900
143  2 -0.5114 13.392200 15.090800  8.624110
144  2 -0.5137 13.391100 15.097600 20.852400
145  2 -0.5125  3.161140  8.124160  3.610300
146  2 -0.5111  3.160740  8.130610 15.846700
147  2 -0.5135  3.159290 19.640000  3.607720
148  2 -0.5148  3.166210 19.647900 15.842000
149  2 -0.5132  7.244860  8.128590  3.603410
150  2 -0.5136  7.252480  8.130680 15.846400
151  2 -0.5132  7.256810 19.646100  3.609680
152  2 -0.5134  7.254380 19.642200 15.842300
153  2 -0.5140 11.348600  8.132260  3.602640
154  2 -0.5117 11.349600  8.124920 15.847400
155  2 -0.5135 11.353000 19.646900  3.611370
156  2 -0.5136 11.349700 19.645200 15.842300
157  2 -0.5119 15.432300  8.126210  3.608890
158  2 -0.5128 15.444000  8.125770 15.848200
159  2 -0.5111 15.441600 19.642900  3.609350
160  2 -0.5135 15.426600 19.640200 15.842000
161  2 -0.5145  3.166530  9.338970  9.727450
162  2 -0.5118  3.162240  9.333200 21.970000
163  2 -0.5136  3.160620 20.856100  9.736170
164  2 -0.5142  3.168000 20.848600 21.969100
165  2 -0.5119  7.258140  9.339270  9.729720
166  2 -0.5123  7.247160  9.335540 21.975200
167  2 -0.5134  7.251280 20.852300  9.728840
168  2 -0.5112  7.257290 20.848700 21.967300
169  2 -0.5129 11.345000  9.336290  9.732120
170  2 -0.5127 11.348400  9.335780 21.969400
171  2 -0.5125 11.347800 20.852000  9.730210
172  2 -0.5154 11.346500 20.849400 21.971000
173  2 -0.5132 15.442400  9.341590  9.726340
174  2 -0.5122 15.432700  9.338310 21.972200
175  2 -0.5134 15.442200 20.847800  9.729700
176  2 -0.5126 15.433800 20.851200 21.966000
177  2 -0.5100  1.120950  2.368400  2.508930
178  2 -0.5141  1.115850  2.371710 14.746000
179  2 -0.5146  1.125040 13.885400  2.517000
180  2 -0.5135  1.116690 13.883600 14.744500
181  2 -0.5142  5.208320  2.369800  2.508790
182  2 -0.5123  5.210390  2.372600 14.741700
183  2 -0.5141  5.208040 13.885500  2.509260
184  2 -0.5119  5.204040 13.889500 14.743100
185  2 -0.5089  9.302080  2.372290  2.504370
186  2 -0.5130  9.303110  2.368050 14.747200
187  2 -0.5113  9.302970 13.888600  2.519260
188  2 -0.5127  9.299500 13.889200 14.748800
189  2 -0.5132 13.384400  2.374610  2.506450
190  2 -0.5109 13.391700  2.369550 14.747100
191  2 -0.5144 13.393200 13.889700  2.512870
192  2 -0.5117 13.387600 13.888000 14.748900
193  2 -0.5086  1.117660 11.031600  4.634990
194  2 -0.5037  1.116160 11.030400 16.861900
195  2 -0.5053  1.119020 22.544600  4.638120
196  2 -0.5069  1.115570 22.549800 16.860000
197  2 -0.5068  5.204470 11.037400  4.628250
198  2 -0.5048  5.208710 11.034600 16.865500
199  2 -0.5085  5.205980 22.544800  4.624080
200  2 -0.5044  5.208480 22.554700 16.872400
201  2 -0.5056  9.298270 11.032500  4.629690
202  2 -0.5053  9.302410 11.033800 16.862700
203  2 -0.5046  9.302170 22.553900  4.633080
204  2 -0.5047  9.303950 22.545900 16.861300
205  2 -0.5068 13.395600 11.031700  4.626020
206  2 -0.5065 13.390400 11.034400 16.863600
207  2 -0.5067 13.393200 22.550900  4.622470
208  2 -0.5052 13.390000 22.548400 16.872400
209  2 -0.5055  3.160550  0.673261  7.597130
210  2 -0.5063  3.162320  0.674452 19.843100
211  2 -0.5060  3.162810 12.194600  7.600020
212  2 -0.5040  3.157000 12.185100 19.838800
213  2 -0.5043  7.252030  0.669446  7.599730
214  2 -0.5043  7.256090  0.670719 19.842100
215  2 -0.5047  7.255600 12.185100  7.596710
216  2 -0.5055  7.254950 12.184900 19.839800
217  2 -0.5049 11.347800  0.675376  7.598790
218  2 -0.5079 11.347000  0.672483 19.845300
219  2 -0.5051 11.349600 12.184700  7.595310
220  2 -0.5054 11.348500 12.191500 19.842900
221  2 -0.5063 15.438500  0.668311  7.598620
222  2 -0.5060 15.438200  0.671817 19.840700
223  2 -0.5059 15.437900 12.195000  7.597080
224  2 -0.5062 15.439300 12.187200 19.838600
225  2 -0.5074  3.164510  5.279890  1.484410
226  2 -0.5043  3.163250  5.273180 13.723800
227  2 -0.5063  3.167650 16.786000  1.490020
228  2 -0.5058  3.163090 16.791300 13.725600
229  2 -0.5048  7.254930  5.268480  1.488350
230  2 -0.5049  7.253460  5.278820 13.721700
231  2 -0.5059  7.251460 16.796400  1.486740
232  2 -0.5053  7.254680 16.787900 13.723600
233  2 -0.5086 11.345800  5.274700  1.483890
234  2 -0.5045 11.344400  5.273410 13.726100
235  2 -0.5061 11.346100 16.795200  1.489040
236  2 -0.5059 11.347900 16.789000 13.727400
237  2 -0.5057 15.436100  5.279610  1.487070
238  2 -0.5060 15.435700  5.275010 13.722400
239  2 -0.5068 15.434200 16.787300  1.488750
240  2 -0.5056 15.439200 16.791900 13.722100
241  2 -0.5058  1.114330  6.422150 10.747200
242  2 -0.5068  1.119170  6.431340 22.986200
243  2 -0.5067  1.118320 17.931400 10.750500
244  2 -0.5043  1.116900 17.950300 22.989900
245  2 -0.5048  5.211730  6.431540 10.743100
246  2 -0.5072  5.209890  6.427870 22.999100
247  2 -0.5046  5.207330 17.952400 10.744600
248  2 -0.5063  5.212040 17.940700 22.991900
249  2 -0.5056  9.296540  6.427690 10.744100
250  2 -0.5049  9.300020  6.421130 22.987400
251  2 -0.5084  9.303000 17.935900 10.753800
252  2 -0.5033  9.301830 17.956100 22.987900
253  2 -0.5061 13.390600  6.433610 10.741100
254  2 -0.5064 13.392400  6.431360 22.993600
255  2 -0.5053 13.394900 17.952800 10.747400
256  2 -0.5069 13.394900 17.939700 22.994500
257  2 -0.6626  1.115050  9.932350  0.848839
258  2 -0.6639  1.121640  9.938400 13.083300
259  2 -0.6623  1.116160 21.447200  0.850138
260  2 -0.6646  1.120190 21.461900 13.083500
261  2 -0.6613  5.204700  9.947550  0.863980
262  2 -0.6630  5.210460  9.930820 13.078200
263  2 -0.6668  5.216190 21.454500  0.857062
264  2 -0.6612  5.206960 21.450600 13.080600
265  2 -0.6636  9.299500  9.931990  0.846031
266  2 -0.6635  9.299050  9.934970 13.085400
267  2 -0.6606  9.297510 21.449600  0.855016
268  2 -0.6650  9.300600 21.452900 13.080900
269  2 -0.6617 13.397000  9.945550  0.857534
270  2 -0.6637 13.388700  9.933470 13.083900
271  2 -0.6658 13.391700 21.453300  0.858960
272  2 -0.6617 13.389600 21.455100 13.079500
273  2 -0.6638  3.166450  1.772290 11.393800
274  2 -0.6636  3.160490  1.766230 23.636100
275  2 -0.6654  3.163950 13.292000 11.396800
276  2 -0.6630  3.159810 13.283300 23.629500
277  2 -0.6645  7.250880  1.776040 11.395000
278  2 -0.6611  7.256700  1.772400 23.640700
279  2 -0.6640  7.253690 13.289000 11.396000
280  2 -0.6644  7.256470 13.290000 23.638600
281  2 -0.6627 11.349400  1.779860 11.397500
282  2 -0.6657 11.336700  1.762170 23.633600
283  2 -0.6633 11.347500 13.290400 11.393100
284  2 -0.6626 11.344300 13.293100 23.634900
285  2 -0.6645 15.431800  1.772020 11.391400
286  2 -0.6617 15.437500  1.772290 23.643700
287  2 -0.6648 15.431300 13.286000 11.398000
288  2 -0.6641 15.443900 13.288900 23.635700
289  2 -0.6630  3.162390  4.179230  5.258800
290  2 -0.6637  3.160220  4.182540 17.511600
291  2 -0.6632  3.162650 15.698700  5.267780
292  2 -0.6631  3.159600 15.692900 17.511000
293  2 -0.6635  7.259260  4.172450  5.268570
294  2 -0.6643  7.251240  4.179540 17.508100
295  2 -0.6625  7.245980 15.696100  5.261610
296  2 -0.6629  7.260850 15.689800 17.513600
297  2 -0.6631 11.341400  4.178300  5.260780
298  2 -0.6625 11.344600  4.175110 17.508500
299  2 -0.6644 11.346000 15.699900  5.264030
300  2 -0.6628 11.341300 15.695500 17.509100
301  2 -0.6637 15.433800  4.168770  5.272170
302  2 -0.6643 15.434200  4.181190 17.516100
303  2 -0.6648 15.434800 15.693400  5.275850
304  2 -0.6628 15.439700 15.699200 17.506300
305  2 -0.6623  1.116290  7.526370  6.956190
306  2 -0.6642  1.123530  7.536840 19.193400
307  2 -0.6627  1.120800 19.038300  6.961090
308  2 -0.6651  1.115740 19.050000 19.188500
309  2 -0.6637  5.208670  7.528550  6.953430
310  2 -0.6640  5.211500  7.530790 19.201700
311  2 -0.6635  5.212060 19.048800  6.953190
312  2 -0.6648  5.208270 19.044000 19.202100
313  2 -0.6628  9.300130  7.532480  6.952000
314  2 -0.6636  9.301480  7.529620 19.199300
315  2 -0.6638  9.298410 19.038600  6.963510
316  2 -0.6650  9.300330 19.051100 19.184500
317  2 -0.6633 13.388800  7.526260  6.953920
318  2 -0.6630 13.389300  7.535410 19.199800
319  2 -0.6630 13.395100 19.049700  6.951350
320  2 -0.6650 13.394100 19.038700 19.206900

