Generated by pymatgen.io.lammps.data.LammpsData

504  atoms

  2  atom types

0.00000000 17.14088450  xlo xhi
0.00000000 22.26666213  ylo yhi
0.00000000 41.65045767  zlo zhi

Masses

1  208.9804
2   78.9600

Atoms

1    1  1.00000  0.00000000 14.84444142 12.02339506
2    1  1.00000  2.14261056 18.55555177 12.02339506
3    1  1.00000  0.00000000  7.42222071 12.02339506
4    1  1.00000  2.14261056 11.13333106 12.02339506
5    1  1.00000  4.28522112 14.84444142 12.02339506
6    1  1.00000  6.42783169 18.55555177 12.02339506
7    1  1.00000  0.00000000  0.00000000 12.02339506
8    1  1.00000  2.14261056  3.71111035 12.02339506
9    1  1.00000  4.28522112  7.42222071 12.02339506
10   1  1.00000  6.42783169 11.13333106 12.02339506
11   1  1.00000  8.57044225 14.84444142 12.02339506
12   1  1.00000 10.71305281 18.55555177 12.02339506
13   1  1.00000  4.28522112  0.00000000 12.02339506
14   1  1.00000  6.42783169  3.71111035 12.02339506
15   1  1.00000  8.57044225  7.42222071 12.02339506
16   1  1.00000 10.71305281 11.13333106 12.02339506
17   1  1.00000 12.85566337 14.84444142 12.02339506
18   1  1.00000 14.99827394 18.55555177 12.02339506
19   1  1.00000  8.57044225  0.00000000 12.02339506
20   1  1.00000 10.71305281  3.71111035 12.02339506
21   1  1.00000 12.85566337  7.42222071 12.02339506
22   1  1.00000 14.99827394 11.13333106 12.02339506
23   1  1.00000 12.85566337 22.26666213 12.02339506
24   1  1.00000 14.99827394  3.71111035 12.02339506
25   1  1.00000  2.14261056 13.60740463  1.86009084
26   1  1.00000  4.28522112 17.31851499  1.86009084
27   1  1.00000  2.14261056  6.18518392  1.86009084
28   1  1.00000  4.28522112  9.89629428  1.86009084
29   1  1.00000  6.42783169 13.60740463  1.86009084
30   1  1.00000  8.57044225 17.31851499  1.86009084
31   1  1.00000  2.14261056 21.02962534  1.86009084
32   1  1.00000  4.28522112  2.47407357  1.86009084
33   1  1.00000  6.42783169  6.18518392  1.86009084
34   1  1.00000  8.57044225  9.89629428  1.86009084
35   1  1.00000 10.71305281 13.60740463  1.86009084
36   1  1.00000 12.85566337 17.31851499  1.86009084
37   1  1.00000  6.42783169 21.02962534  1.86009084
38   1  1.00000  8.57044225  2.47407357  1.86009084
39   1  1.00000 10.71305281  6.18518392  1.86009084
40   1  1.00000 12.85566337  9.89629428  1.86009084
41   1  1.00000 14.99827394 13.60740463  1.86009084
42   1  1.00000  0.00000000 17.31851499  1.86009084
43   1  1.00000 10.71305281 21.02962534  1.86009084
44   1  1.00000 12.85566337  2.47407357  1.86009084
45   1  1.00000 14.99827394  6.18518392  1.86009084
46   1  1.00000  0.00000000  9.89629428  1.86009084
47   1  1.00000 14.99827394 21.02962534  1.86009084
48   1  1.00000  0.00000000  2.47407357  1.86009084
49   1  1.00000  0.00000000 14.84444142  6.07914919
50   1  1.00000  2.14261056 18.55555177  6.07914919
51   1  1.00000  0.00000000  7.42222071  6.07914919
52   1  1.00000  2.14261056 11.13333106  6.07914919
53   1  1.00000  4.28522112 14.84444142  6.07914919
54   1  1.00000  6.42783169 18.55555177  6.07914919
55   1  1.00000  0.00000000  0.00000000  6.07914919
56   1  1.00000  2.14261056  3.71111035  6.07914919
57   1  1.00000  4.28522112  7.42222071  6.07914919
58   1  1.00000  6.42783169 11.13333106  6.07914919
59   1  1.00000  8.57044225 14.84444142  6.07914919
60   1  1.00000 10.71305281 18.55555177  6.07914919
61   1  1.00000  4.28522112  0.00000000  6.07914919
62   1  1.00000  6.42783169  3.71111035  6.07914919
63   1  1.00000  8.57044225  7.42222071  6.07914919
64   1  1.00000 10.71305281 11.13333106  6.07914919
65   1  1.00000 12.85566337 14.84444142  6.07914919
66   1  1.00000 14.99827394 18.55555177  6.07914919
67   1  1.00000  8.57044225  0.00000000  6.07914919
68   1  1.00000 10.71305281  3.71111035  6.07914919
69   1  1.00000 12.85566337  7.42222071  6.07914919
70   1  1.00000 14.99827394 11.13333106  6.07914919
71   1  1.00000 12.85566337 22.26666213  6.07914919
72   1  1.00000 14.99827394  3.71111035  6.07914919
73   1  1.00000  2.14261056 13.60740463  7.80433670
74   1  1.00000  4.28522112 17.31851499  7.80433670
75   1  1.00000  2.14261056  6.18518392  7.80433670
76   1  1.00000  4.28522112  9.89629428  7.80433670
77   1  1.00000  6.42783169 13.60740463  7.80433670
78   1  1.00000  8.57044225 17.31851499  7.80433670
79   1  1.00000  2.14261056 21.02962534  7.80433670
80   1  1.00000  4.28522112  2.47407357  7.80433670
81   1  1.00000  6.42783169  6.18518392  7.80433670
82   1  1.00000  8.57044225  9.89629428  7.80433670
83   1  1.00000 10.71305281 13.60740463  7.80433670
84   1  1.00000 12.85566337 17.31851499  7.80433670
85   1  1.00000  6.42783169 21.02962534  7.80433670
86   1  1.00000  8.57044225  2.47407357  7.80433670
87   1  1.00000 10.71305281  6.18518392  7.80433670
88   1  1.00000 12.85566337  9.89629428  7.80433670
89   1  1.00000 14.99827394 13.60740463  7.80433670
90   1  1.00000  0.00000000 17.31851499  7.80433670
91   1  1.00000 10.71305281 21.02962534  7.80433670
92   1  1.00000 12.85566337  2.47407357  7.80433670
93   1  1.00000 14.99827394  6.18518392  7.80433670
94   1  1.00000  0.00000000  9.89629428  7.80433670
95   1  1.00000 14.99827394 21.02962534  7.80433670
96   1  1.00000  0.00000000  2.47407357  7.80433670
97   1  1.00000  2.14261056 13.60740463 25.90688095
98   1  1.00000  4.28522112 17.31851499 25.90688095
99   1  1.00000  2.14261056  6.18518392 25.90688095
100  1  1.00000  4.28522112  9.89629428 25.90688095
101  1  1.00000  6.42783169 13.60740463 25.90688095
102  1  1.00000  8.57044225 17.31851499 25.90688095
103  1  1.00000  2.14261056 21.02962534 25.90688095
104  1  1.00000  4.28522112  2.47407357 25.90688095
105  1  1.00000  6.42783169  6.18518392 25.90688095
106  1  1.00000  8.57044225  9.89629428 25.90688095
107  1  1.00000 10.71305281 13.60740463 25.90688095
108  1  1.00000 12.85566337 17.31851499 25.90688095
109  1  1.00000  6.42783169 21.02962534 25.90688095
110  1  1.00000  8.57044225  2.47407357 25.90688095
111  1  1.00000 10.71305281  6.18518392 25.90688095
112  1  1.00000 12.85566337  9.89629428 25.90688095
113  1  1.00000 14.99827394 13.60740463 25.90688095
114  1  1.00000  0.00000000 17.31851499 25.90688095
115  1  1.00000 10.71305281 21.02962534 25.90688095
116  1  1.00000 12.85566337  2.47407357 25.90688095
117  1  1.00000 14.99827394  6.18518392 25.90688095
118  1  1.00000  0.00000000  9.89629428 25.90688095
119  1  1.00000 14.99827394 21.02962534 25.90688095
120  1  1.00000  0.00000000  2.47407357 25.90688095
121  1  1.00000  2.14261056 16.08147820 15.74357673
122  1  1.00000  4.28522112 19.79258856 15.74357673
123  1  1.00000  2.14261056  8.65925749 15.74357673
124  1  1.00000  4.28522112 12.37036785 15.74357673
125  1  1.00000  6.42783169 16.08147820 15.74357673
126  1  1.00000  8.57044225 19.79258856 15.74357673
127  1  1.00000  2.14261056  1.23703678 15.74357673
128  1  1.00000  4.28522112  4.94814714 15.74357673
129  1  1.00000  6.42783169  8.65925749 15.74357673
130  1  1.00000  8.57044225 12.37036785 15.74357673
131  1  1.00000 10.71305281 16.08147820 15.74357673
132  1  1.00000 12.85566337 19.79258856 15.74357673
133  1  1.00000  6.42783169  1.23703678 15.74357673
134  1  1.00000  8.57044225  4.94814714 15.74357673
135  1  1.00000 10.71305281  8.65925749 15.74357673
136  1  1.00000 12.85566337 12.37036785 15.74357673
137  1  1.00000 14.99827394 16.08147820 15.74357673
138  1  1.00000  0.00000000 19.79258856 15.74357673
139  1  1.00000 10.71305281  1.23703678 15.74357673
140  1  1.00000 12.85566337  4.94814714 15.74357673
141  1  1.00000 14.99827394  8.65925749 15.74357673
142  1  1.00000  0.00000000 12.37036785 15.74357673
143  1  1.00000 14.99827394  1.23703678 15.74357673
144  1  1.00000  0.00000000  4.94814714 15.74357673
145  1  1.00000  2.14261056 13.60740463 19.96263509
146  1  1.00000  4.28522112 17.31851499 19.96263509
147  1  1.00000  2.14261056  6.18518392 19.96263509
148  1  1.00000  4.28522112  9.89629428 19.96263509
149  1  1.00000  6.42783169 13.60740463 19.96263509
150  1  1.00000  8.57044225 17.31851499 19.96263509
151  1  1.00000  2.14261056 21.02962534 19.96263509
152  1  1.00000  4.28522112  2.47407357 19.96263509
153  1  1.00000  6.42783169  6.18518392 19.96263509
154  1  1.00000  8.57044225  9.89629428 19.96263509
155  1  1.00000 10.71305281 13.60740463 19.96263509
156  1  1.00000 12.85566337 17.31851499 19.96263509
157  1  1.00000  6.42783169 21.02962534 19.96263509
158  1  1.00000  8.57044225  2.47407357 19.96263509
159  1  1.00000 10.71305281  6.18518392 19.96263509
160  1  1.00000 12.85566337  9.89629428 19.96263509
161  1  1.00000 14.99827394 13.60740463 19.96263509
162  1  1.00000  0.00000000 17.31851499 19.96263509
163  1  1.00000 10.71305281 21.02962534 19.96263509
164  1  1.00000 12.85566337  2.47407357 19.96263509
165  1  1.00000 14.99827394  6.18518392 19.96263509
166  1  1.00000  0.00000000  9.89629428 19.96263509
167  1  1.00000 14.99827394 21.02962534 19.96263509
168  1  1.00000  0.00000000  2.47407357 19.96263509
169  1  1.00000  2.14261056 16.08147820 21.68782259
170  1  1.00000  4.28522112 19.79258856 21.68782259
171  1  1.00000  2.14261056  8.65925749 21.68782259
172  1  1.00000  4.28522112 12.37036785 21.68782259
173  1  1.00000  6.42783169 16.08147820 21.68782259
174  1  1.00000  8.57044225 19.79258856 21.68782259
175  1  1.00000  2.14261056  1.23703678 21.68782259
176  1  1.00000  4.28522112  4.94814714 21.68782259
177  1  1.00000  6.42783169  8.65925749 21.68782259
178  1  1.00000  8.57044225 12.37036785 21.68782259
179  1  1.00000 10.71305281 16.08147820 21.68782259
180  1  1.00000 12.85566337 19.79258856 21.68782259
181  1  1.00000  6.42783169  1.23703678 21.68782259
182  1  1.00000  8.57044225  4.94814714 21.68782259
183  1  1.00000 10.71305281  8.65925749 21.68782259
184  1  1.00000 12.85566337 12.37036785 21.68782259
185  1  1.00000 14.99827394 16.08147820 21.68782259
186  1  1.00000  0.00000000 19.79258856 21.68782259
187  1  1.00000 10.71305281  1.23703678 21.68782259
188  1  1.00000 12.85566337  4.94814714 21.68782259
189  1  1.00000 14.99827394  8.65925749 21.68782259
190  1  1.00000  0.00000000 12.37036785 21.68782259
191  1  1.00000 14.99827394  1.23703678 21.68782259
192  1  1.00000  0.00000000  4.94814714 21.68782259
193  1  1.00000  2.14261056 16.08147820 39.79036684
194  1  1.00000  4.28522112 19.79258856 39.79036684
195  1  1.00000  2.14261056  8.65925749 39.79036684
196  1  1.00000  4.28522112 12.37036785 39.79036684
197  1  1.00000  6.42783169 16.08147820 39.79036684
198  1  1.00000  8.57044225 19.79258856 39.79036684
199  1  1.00000  2.14261056  1.23703678 39.79036684
200  1  1.00000  4.28522112  4.94814714 39.79036684
201  1  1.00000  6.42783169  8.65925749 39.79036684
202  1  1.00000  8.57044225 12.37036785 39.79036684
203  1  1.00000 10.71305281 16.08147820 39.79036684
204  1  1.00000 12.85566337 19.79258856 39.79036684
205  1  1.00000  6.42783169  1.23703678 39.79036684
206  1  1.00000  8.57044225  4.94814714 39.79036684
207  1  1.00000 10.71305281  8.65925749 39.79036684
208  1  1.00000 12.85566337 12.37036785 39.79036684
209  1  1.00000 14.99827394 16.08147820 39.79036684
210  1  1.00000  0.00000000 19.79258856 39.79036684
211  1  1.00000 10.71305281  1.23703678 39.79036684
212  1  1.00000 12.85566337  4.94814714 39.79036684
213  1  1.00000 14.99827394  8.65925749 39.79036684
214  1  1.00000  0.00000000 12.37036785 39.79036684
215  1  1.00000 14.99827394  1.23703678 39.79036684
216  1  1.00000  0.00000000  4.94814714 39.79036684
217  1  1.00000  0.00000000 14.84444142 29.62706262
218  1  1.00000  2.14261056 18.55555177 29.62706262
219  1  1.00000  0.00000000  7.42222071 29.62706262
220  1  1.00000  2.14261056 11.13333106 29.62706262
221  1  1.00000  4.28522112 14.84444142 29.62706262
222  1  1.00000  6.42783169 18.55555177 29.62706262
223  1  1.00000  0.00000000  0.00000000 29.62706262
224  1  1.00000  2.14261056  3.71111035 29.62706262
225  1  1.00000  4.28522112  7.42222071 29.62706262
226  1  1.00000  6.42783169 11.13333106 29.62706262
227  1  1.00000  8.57044225 14.84444142 29.62706262
228  1  1.00000 10.71305281 18.55555177 29.62706262
229  1  1.00000  4.28522112  0.00000000 29.62706262
230  1  1.00000  6.42783169  3.71111035 29.62706262
231  1  1.00000  8.57044225  7.42222071 29.62706262
232  1  1.00000 10.71305281 11.13333106 29.62706262
233  1  1.00000 12.85566337 14.84444142 29.62706262
234  1  1.00000 14.99827394 18.55555177 29.62706262
235  1  1.00000  8.57044225  0.00000000 29.62706262
236  1  1.00000 10.71305281  3.71111035 29.62706262
237  1  1.00000 12.85566337  7.42222071 29.62706262
238  1  1.00000 14.99827394 11.13333106 29.62706262
239  1  1.00000 12.85566337 22.26666213 29.62706262
240  1  1.00000 14.99827394  3.71111035 29.62706262
241  1  1.00000  2.14261056 16.08147820 33.84612098
242  1  1.00000  4.28522112 19.79258856 33.84612098
243  1  1.00000  2.14261056  8.65925749 33.84612098
244  1  1.00000  4.28522112 12.37036785 33.84612098
245  1  1.00000  6.42783169 16.08147820 33.84612098
246  1  1.00000  8.57044225 19.79258856 33.84612098
247  1  1.00000  2.14261056  1.23703678 33.84612098
248  1  1.00000  4.28522112  4.94814714 33.84612098
249  1  1.00000  6.42783169  8.65925749 33.84612098
250  1  1.00000  8.57044225 12.37036785 33.84612098
251  1  1.00000 10.71305281 16.08147820 33.84612098
252  1  1.00000 12.85566337 19.79258856 33.84612098
253  1  1.00000  6.42783169  1.23703678 33.84612098
254  1  1.00000  8.57044225  4.94814714 33.84612098
255  1  1.00000 10.71305281  8.65925749 33.84612098
256  1  1.00000 12.85566337 12.37036785 33.84612098
257  1  1.00000 14.99827394 16.08147820 33.84612098
258  1  1.00000  0.00000000 19.79258856 33.84612098
259  1  1.00000 10.71305281  1.23703678 33.84612098
260  1  1.00000 12.85566337  4.94814714 33.84612098
261  1  1.00000 14.99827394  8.65925749 33.84612098
262  1  1.00000  0.00000000 12.37036785 33.84612098
263  1  1.00000 14.99827394  1.23703678 33.84612098
264  1  1.00000  0.00000000  4.94814714 33.84612098
265  1  1.00000  0.00000000 14.84444142 35.57130848
266  1  1.00000  2.14261056 18.55555177 35.57130848
267  1  1.00000  0.00000000  7.42222071 35.57130848
268  1  1.00000  2.14261056 11.13333106 35.57130848
269  1  1.00000  4.28522112 14.84444142 35.57130848
270  1  1.00000  6.42783169 18.55555177 35.57130848
271  1  1.00000  0.00000000  0.00000000 35.57130848
272  1  1.00000  2.14261056  3.71111035 35.57130848
273  1  1.00000  4.28522112  7.42222071 35.57130848
274  1  1.00000  6.42783169 11.13333106 35.57130848
275  1  1.00000  8.57044225 14.84444142 35.57130848
276  1  1.00000 10.71305281 18.55555177 35.57130848
277  1  1.00000  4.28522112  0.00000000 35.57130848
278  1  1.00000  6.42783169  3.71111035 35.57130848
279  1  1.00000  8.57044225  7.42222071 35.57130848
280  1  1.00000 10.71305281 11.13333106 35.57130848
281  1  1.00000 12.85566337 14.84444142 35.57130848
282  1  1.00000 14.99827394 18.55555177 35.57130848
283  1  1.00000  8.57044225  0.00000000 35.57130848
284  1  1.00000 10.71305281  3.71111035 35.57130848
285  1  1.00000 12.85566337  7.42222071 35.57130848
286  1  1.00000 14.99827394 11.13333106 35.57130848
287  1  1.00000 12.85566337 22.26666213 35.57130848
288  1  1.00000 14.99827394  3.71111035 35.57130848
289  2 -0.66700  0.00000000 14.84444142  0.00000000
290  2 -0.66700  2.14261056 18.55555177  0.00000000
291  2 -0.66700  0.00000000  7.42222071  0.00000000
292  2 -0.66700  2.14261056 11.13333106  0.00000000
293  2 -0.66700  4.28522112 14.84444142  0.00000000
294  2 -0.66700  6.42783169 18.55555177  0.00000000
295  2 -0.66700  0.00000000  0.00000000  0.00000000
296  2 -0.66700  2.14261056  3.71111035  0.00000000
297  2 -0.66700  4.28522112  7.42222071  0.00000000
298  2 -0.66700  6.42783169 11.13333106  0.00000000
299  2 -0.66700  8.57044225 14.84444142  0.00000000
300  2 -0.66700 10.71305281 18.55555177  0.00000000
301  2 -0.66700  4.28522112  0.00000000  0.00000000
302  2 -0.66700  6.42783169  3.71111035  0.00000000
303  2 -0.66700  8.57044225  7.42222071  0.00000000
304  2 -0.66700 10.71305281 11.13333106  0.00000000
305  2 -0.66700 12.85566337 14.84444142  0.00000000
306  2 -0.66700 14.99827394 18.55555177  0.00000000
307  2 -0.66700  8.57044225  0.00000000  0.00000000
308  2 -0.66700 10.71305281  3.71111035  0.00000000
309  2 -0.66700 12.85566337  7.42222071  0.00000000
310  2 -0.66700 14.99827394 11.13333106  0.00000000
311  2 -0.66700 12.85566337 22.26666213  0.00000000
312  2 -0.66700 14.99827394  3.71111035  0.00000000
313  2 -0.66700  2.14261056 16.08147820  3.36169951
314  2 -0.66700  4.28522112 19.79258856  3.36169951
315  2 -0.66700  2.14261056  8.65925749  3.36169951
316  2 -0.66700  4.28522112 12.37036785  3.36169951
317  2 -0.66700  6.42783169 16.08147820  3.36169951
318  2 -0.66700  8.57044225 19.79258856  3.36169951
319  2 -0.66700  2.14261056  1.23703678  3.36169951
320  2 -0.66700  4.28522112  4.94814714  3.36169951
321  2 -0.66700  6.42783169  8.65925749  3.36169951
322  2 -0.66700  8.57044225 12.37036785  3.36169951
323  2 -0.66700 10.71305281 16.08147820  3.36169951
324  2 -0.66700 12.85566337 19.79258856  3.36169951
325  2 -0.66700  6.42783169  1.23703678  3.36169951
326  2 -0.66700  8.57044225  4.94814714  3.36169951
327  2 -0.66700 10.71305281  8.65925749  3.36169951
328  2 -0.66700 12.85566337 12.37036785  3.36169951
329  2 -0.66700 14.99827394 16.08147820  3.36169951
330  2 -0.66700  0.00000000 19.79258856  3.36169951
331  2 -0.66700 10.71305281  1.23703678  3.36169951
332  2 -0.66700 12.85566337  4.94814714  3.36169951
333  2 -0.66700 14.99827394  8.65925749  3.36169951
334  2 -0.66700  0.00000000 12.37036785  3.36169951
335  2 -0.66700 14.99827394  1.23703678  3.36169951
336  2 -0.66700  0.00000000  4.94814714  3.36169951
337  2 -0.66700  2.14261056 16.08147820 10.52178638
338  2 -0.66700  4.28522112 19.79258856 10.52178638
339  2 -0.66700  2.14261056  8.65925749 10.52178638
340  2 -0.66700  4.28522112 12.37036785 10.52178638
341  2 -0.66700  6.42783169 16.08147820 10.52178638
342  2 -0.66700  8.57044225 19.79258856 10.52178638
343  2 -0.66700  2.14261056  1.23703678 10.52178638
344  2 -0.66700  4.28522112  4.94814714 10.52178638
345  2 -0.66700  6.42783169  8.65925749 10.52178638
346  2 -0.66700  8.57044225 12.37036785 10.52178638
347  2 -0.66700 10.71305281 16.08147820 10.52178638
348  2 -0.66700 12.85566337 19.79258856 10.52178638
349  2 -0.66700  6.42783169  1.23703678 10.52178638
350  2 -0.66700  8.57044225  4.94814714 10.52178638
351  2 -0.66700 10.71305281  8.65925749 10.52178638
352  2 -0.66700 12.85566337 12.37036785 10.52178638
353  2 -0.66700 14.99827394 16.08147820 10.52178638
354  2 -0.66700  0.00000000 19.79258856 10.52178638
355  2 -0.66700 10.71305281  1.23703678 10.52178638
356  2 -0.66700 12.85566337  4.94814714 10.52178638
357  2 -0.66700 14.99827394  8.65925749 10.52178638
358  2 -0.66700  0.00000000 12.37036785 10.52178638
359  2 -0.66700 14.99827394  1.23703678 10.52178638
360  2 -0.66700  0.00000000  4.94814714 10.52178638
361  2 -0.66700  2.14261056 13.60740463 13.88348589
362  2 -0.66700  4.28522112 17.31851499 13.88348589
363  2 -0.66700  2.14261056  6.18518392 13.88348589
364  2 -0.66700  4.28522112  9.89629428 13.88348589
365  2 -0.66700  6.42783169 13.60740463 13.88348589
366  2 -0.66700  8.57044225 17.31851499 13.88348589
367  2 -0.66700  2.14261056 21.02962534 13.88348589
368  2 -0.66700  4.28522112  2.47407357 13.88348589
369  2 -0.66700  6.42783169  6.18518392 13.88348589
370  2 -0.66700  8.57044225  9.89629428 13.88348589
371  2 -0.66700 10.71305281 13.60740463 13.88348589
372  2 -0.66700 12.85566337 17.31851499 13.88348589
373  2 -0.66700  6.42783169 21.02962534 13.88348589
374  2 -0.66700  8.57044225  2.47407357 13.88348589
375  2 -0.66700 10.71305281  6.18518392 13.88348589
376  2 -0.66700 12.85566337  9.89629428 13.88348589
377  2 -0.66700 14.99827394 13.60740463 13.88348589
378  2 -0.66700  0.00000000 17.31851499 13.88348589
379  2 -0.66700 10.71305281 21.02962534 13.88348589
380  2 -0.66700 12.85566337  2.47407357 13.88348589
381  2 -0.66700 14.99827394  6.18518392 13.88348589
382  2 -0.66700  0.00000000  9.89629428 13.88348589
383  2 -0.66700 14.99827394 21.02962534 13.88348589
384  2 -0.66700  0.00000000  2.47407357 13.88348589
385  2 -0.66700  0.00000000 14.84444142 17.24518541
386  2 -0.66700  2.14261056 18.55555177 17.24518541
387  2 -0.66700  0.00000000  7.42222071 17.24518541
388  2 -0.66700  2.14261056 11.13333106 17.24518541
389  2 -0.66700  4.28522112 14.84444142 17.24518541
390  2 -0.66700  6.42783169 18.55555177 17.24518541
391  2 -0.66700  0.00000000  0.00000000 17.24518541
392  2 -0.66700  2.14261056  3.71111035 17.24518541
393  2 -0.66700  4.28522112  7.42222071 17.24518541
394  2 -0.66700  6.42783169 11.13333106 17.24518541
395  2 -0.66700  8.57044225 14.84444142 17.24518541
396  2 -0.66700 10.71305281 18.55555177 17.24518541
397  2 -0.66700  4.28522112  0.00000000 17.24518541
398  2 -0.66700  6.42783169  3.71111035 17.24518541
399  2 -0.66700  8.57044225  7.42222071 17.24518541
400  2 -0.66700 10.71305281 11.13333106 17.24518541
401  2 -0.66700 12.85566337 14.84444142 17.24518541
402  2 -0.66700 14.99827394 18.55555177 17.24518541
403  2 -0.66700  8.57044225  0.00000000 17.24518541
404  2 -0.66700 10.71305281  3.71111035 17.24518541
405  2 -0.66700 12.85566337  7.42222071 17.24518541
406  2 -0.66700 14.99827394 11.13333106 17.24518541
407  2 -0.66700 12.85566337 22.26666213 17.24518541
408  2 -0.66700 14.99827394  3.71111035 17.24518541
409  2 -0.66700  0.00000000 14.84444142 24.40527227
410  2 -0.66700  2.14261056 18.55555177 24.40527227
411  2 -0.66700  0.00000000  7.42222071 24.40527227
412  2 -0.66700  2.14261056 11.13333106 24.40527227
413  2 -0.66700  4.28522112 14.84444142 24.40527227
414  2 -0.66700  6.42783169 18.55555177 24.40527227
415  2 -0.66700  0.00000000  0.00000000 24.40527227
416  2 -0.66700  2.14261056  3.71111035 24.40527227
417  2 -0.66700  4.28522112  7.42222071 24.40527227
418  2 -0.66700  6.42783169 11.13333106 24.40527227
419  2 -0.66700  8.57044225 14.84444142 24.40527227
420  2 -0.66700 10.71305281 18.55555177 24.40527227
421  2 -0.66700  4.28522112  0.00000000 24.40527227
422  2 -0.66700  6.42783169  3.71111035 24.40527227
423  2 -0.66700  8.57044225  7.42222071 24.40527227
424  2 -0.66700 10.71305281 11.13333106 24.40527227
425  2 -0.66700 12.85566337 14.84444142 24.40527227
426  2 -0.66700 14.99827394 18.55555177 24.40527227
427  2 -0.66700  8.57044225  0.00000000 24.40527227
428  2 -0.66700 10.71305281  3.71111035 24.40527227
429  2 -0.66700 12.85566337  7.42222071 24.40527227
430  2 -0.66700 14.99827394 11.13333106 24.40527227
431  2 -0.66700 12.85566337 22.26666213 24.40527227
432  2 -0.66700 14.99827394  3.71111035 24.40527227
433  2 -0.66700  2.14261056 16.08147820 27.76697178
434  2 -0.66700  4.28522112 19.79258856 27.76697178
435  2 -0.66700  2.14261056  8.65925749 27.76697178
436  2 -0.66700  4.28522112 12.37036785 27.76697178
437  2 -0.66700  6.42783169 16.08147820 27.76697178
438  2 -0.66700  8.57044225 19.79258856 27.76697178
439  2 -0.66700  2.14261056  1.23703678 27.76697178
440  2 -0.66700  4.28522112  4.94814714 27.76697178
441  2 -0.66700  6.42783169  8.65925749 27.76697178
442  2 -0.66700  8.57044225 12.37036785 27.76697178
443  2 -0.66700 10.71305281 16.08147820 27.76697178
444  2 -0.66700 12.85566337 19.79258856 27.76697178
445  2 -0.66700  6.42783169  1.23703678 27.76697178
446  2 -0.66700  8.57044225  4.94814714 27.76697178
447  2 -0.66700 10.71305281  8.65925749 27.76697178
448  2 -0.66700 12.85566337 12.37036785 27.76697178
449  2 -0.66700 14.99827394 16.08147820 27.76697178
450  2 -0.66700  0.00000000 19.79258856 27.76697178
451  2 -0.66700 10.71305281  1.23703678 27.76697178
452  2 -0.66700 12.85566337  4.94814714 27.76697178
453  2 -0.66700 14.99827394  8.65925749 27.76697178
454  2 -0.66700  0.00000000 12.37036785 27.76697178
455  2 -0.66700 14.99827394  1.23703678 27.76697178
456  2 -0.66700  0.00000000  4.94814714 27.76697178
457  2 -0.66700  2.14261056 13.60740463 31.12867130
458  2 -0.66700  4.28522112 17.31851499 31.12867130
459  2 -0.66700  2.14261056  6.18518392 31.12867130
460  2 -0.66700  4.28522112  9.89629428 31.12867130
461  2 -0.66700  6.42783169 13.60740463 31.12867130
462  2 -0.66700  8.57044225 17.31851499 31.12867130
463  2 -0.66700  2.14261056 21.02962534 31.12867130
464  2 -0.66700  4.28522112  2.47407357 31.12867130
465  2 -0.66700  6.42783169  6.18518392 31.12867130
466  2 -0.66700  8.57044225  9.89629428 31.12867130
467  2 -0.66700 10.71305281 13.60740463 31.12867130
468  2 -0.66700 12.85566337 17.31851499 31.12867130
469  2 -0.66700  6.42783169 21.02962534 31.12867130
470  2 -0.66700  8.57044225  2.47407357 31.12867130
471  2 -0.66700 10.71305281  6.18518392 31.12867130
472  2 -0.66700 12.85566337  9.89629428 31.12867130
473  2 -0.66700 14.99827394 13.60740463 31.12867130
474  2 -0.66700  0.00000000 17.31851499 31.12867130
475  2 -0.66700 10.71305281 21.02962534 31.12867130
476  2 -0.66700 12.85566337  2.47407357 31.12867130
477  2 -0.66700 14.99827394  6.18518392 31.12867130
478  2 -0.66700  0.00000000  9.89629428 31.12867130
479  2 -0.66700 14.99827394 21.02962534 31.12867130
480  2 -0.66700  0.00000000  2.47407357 31.12867130
481  2 -0.66700  2.14261056 13.60740463 38.28875816
482  2 -0.66700  4.28522112 17.31851499 38.28875816
483  2 -0.66700  2.14261056  6.18518392 38.28875816
484  2 -0.66700  4.28522112  9.89629428 38.28875816
485  2 -0.66700  6.42783169 13.60740463 38.28875816
486  2 -0.66700  8.57044225 17.31851499 38.28875816
487  2 -0.66700  2.14261056 21.02962534 38.28875816
488  2 -0.66700  4.28522112  2.47407357 38.28875816
489  2 -0.66700  6.42783169  6.18518392 38.28875816
490  2 -0.66700  8.57044225  9.89629428 38.28875816
491  2 -0.66700 10.71305281 13.60740463 38.28875816
492  2 -0.66700 12.85566337 17.31851499 38.28875816
493  2 -0.66700  6.42783169 21.02962534 38.28875816
494  2 -0.66700  8.57044225  2.47407357 38.28875816
495  2 -0.66700 10.71305281  6.18518392 38.28875816
496  2 -0.66700 12.85566337  9.89629428 38.28875816
497  2 -0.66700 14.99827394 13.60740463 38.28875816
498  2 -0.66700  0.00000000 17.31851499 38.28875816
499  2 -0.66700 10.71305281 21.02962534 38.28875816
500  2 -0.66700 12.85566337  2.47407357 38.28875816
501  2 -0.66700 14.99827394  6.18518392 38.28875816
502  2 -0.66700  0.00000000  9.89629428 38.28875816
503  2 -0.66700 14.99827394 21.02962534 38.28875816
504  2 -0.66700  0.00000000  2.47407357 38.28875816

