Generated by pymatgen.io.lammps.data.LammpsData

7  atoms

2  atom types

0.000000 6.801871  xlo xhi
0.000000 5.757800  ylo yhi
0.000000 5.399140  zlo zhi
3.621214 3.621213 2.000388  xy xz yz

Masses

1  208.9804
2   78.9600

Atoms

1  1  0.000000 0.000000  0.000000
2  1  7.022149 3.879094  2.699570
3  1  5.211543 2.878900 -0.000000
4  1  3.621214 3.879094  2.699570
5  1  5.211542 1.000194  2.699570
6  2 11.027439 6.091650  4.239349
7  2  3.016860 1.666539  1.159791

