Generated by pymatgen.io.lammps.data.LammpsData

320  atoms

  2  atom types

0.000000 16.864293  xlo xhi
0.000000 23.165087  ylo yhi
0.000000 24.472453  zlo zhi

Masses

1  208.9804
2   78.9600

Atoms

1    1  0.7570  2.362470 11.704200  9.788340
2    1  0.8170  1.609130  7.927870 22.180400
3    1  0.6283  2.870970 19.967800 12.037100
4    1  0.7624  1.818860  0.662353 20.518600
5    1  0.9056  5.911100 12.220900 14.447000
6    1  0.6130  7.579610 12.472100 24.179700
7    1  0.7667  2.885760 23.239600 11.827400
8    1  0.8201  2.433280 20.239500 18.290300
9    1  0.7338  8.105760 12.716300  9.476610
10   1  0.7273  6.985020  9.630540  1.851080
11   1  0.7685  8.526850 22.814100  9.595100
12   1  0.7423 12.343000 21.330700 23.465600
13   1  0.8513 12.683100 13.379300  9.521230
14   1  0.7771 11.348800  7.553210 23.058100
15   1  0.8765 13.282000 21.400900 10.746800
16   1  0.7522 14.917200  0.437048 21.796200
17   1  0.7881  3.399030 23.026000  0.521613
18   1  0.7319  1.792040  3.276760 14.167800
19   1  0.8092  5.255380  9.560190  5.349900
20   1  0.8403  1.049460  9.239600 14.210400
21   1  0.7969  5.697230  0.915227  4.647570
22   1  0.8069 11.185200 -0.052426 19.755800
23   1  0.8032 10.278800  8.168530  4.508650
24   1  0.7556  8.900580 11.441900 16.673700
25   1  0.8514  7.399690  4.272350  3.437960
26   1  0.8003 11.266400  1.842100 12.746100
27   1  0.7241 14.354200 12.995000  4.308040
28   1  0.7318 10.529600 13.369700 14.286700
29   1  0.8542 15.945700  0.809130  0.990235
30   1  0.7038 14.735100 18.185500 15.598000
31   1  0.8021 15.907100 10.588500  0.899457
32   1  0.7864 14.516400 10.272800 13.974800
33   1  0.7278  3.323060  4.486030 10.085800
34   1  0.7820  5.355620  3.163990 18.946300
35   1  0.8024  2.467070 17.408900  9.546030
36   1  0.7492  3.288880 14.479000 20.982300
37   1  0.9038  7.721630  4.986710  8.094340
38   1  0.6946  6.977170  7.682260 22.486500
39   1  0.8492  6.463350 17.499600  9.578970
40   1  0.8904  4.742120 17.950300 22.355300
41   1  0.8265  9.034280  1.299560  5.790880
42   1  0.7871  7.756650  7.330160 18.840000
43   1  0.7619 10.815100 18.350400 12.423700
44   1  0.7596  9.467740 18.335300 22.162700
45   1  0.7205 16.010900  7.776650  6.042440
46   1  0.9243 15.083700  5.632920 18.866500
47   1  0.8632 16.269500 19.072700  9.290190
48   1  0.7083 15.199900 16.279400 18.709500
49   1  0.7822 13.735600  7.891370  3.149200
50   1  0.6601  0.850214  5.878540 15.437400
51   1  0.7688  3.120820 19.362000  6.330990
52   1  0.7263  2.599910 13.744700 17.321700
53   1  0.7688  4.276420  5.639300  5.191170
54   1  0.8349  5.198810  4.067030 15.119000
55   1  0.7267  6.168410 16.552200  4.370100
56   1  0.6583  5.166740 19.288700 14.108300
57   1  0.7162  8.861200 10.495500  6.586840
58   1  0.7158  4.368640  7.090670 15.857300
59   1  0.7744 10.073000 19.282000  3.642680
60   1  0.8076  9.199500 19.203700 16.064100
61   1  0.6348 12.748000 10.146300  6.386820
62   1  0.7587 10.999300  7.481260 15.600300
63   1  0.5956 12.256000 16.489800  2.374790
64   1  0.8133 11.833400 19.318800 20.003300
65   1  0.7019  0.652380  3.778940  7.797070
66   1  0.6757 15.164900  1.338650 17.893500
67   1  0.6580  3.824950 12.607400  6.282730
68   1  0.7723  0.961459 10.772300 17.827900
69   1  0.7903  5.470510  1.883960  8.565770
70   1  0.7367  4.889120 21.223700 21.023800
71   1  0.6917  6.717870 13.685800  6.809780
72   1  0.8511  5.910630 16.252700 18.714900
73   1  0.8600 12.143200  2.580370  8.949010
74   1  0.8387 10.403700  4.100250 20.870600
75   1  0.7738 10.218800 16.205200  6.038320
76   1  0.7951  9.726020 15.872100 17.793800
77   1  0.7959 12.473700  5.056140  4.596030
78   1  0.8071 12.275900  3.404360 16.186700
79   1  0.7652 -0.085470 12.863400  7.493870
80   1  0.7060 16.132700 14.332500 15.965600
81   1  0.7451  2.120780  7.657410  7.883220
82   1  0.8259  2.582500  6.480530 18.917800
83   1  0.8116  0.735838 22.680300  8.379040
84   1  0.8419  4.963850 22.827500 16.928200
85   1  0.8611  5.891570  9.309270  9.991350
86   1  0.8152  5.174060 10.404500 20.439200
87   1  0.7574  7.315790 19.514800  6.072010
88   1  0.7546  8.106740 20.867300 18.952400
89   1  0.6576 13.186400  7.412270  8.613650
90   1  0.7758 12.546700 11.522800 17.606200
91   1  0.8394 14.047400 22.400300  6.651360
92   1  0.6261 14.981600 21.246100 17.601300
93   1  0.8461  1.736380 10.392100  3.899180
94   1  0.8298 15.056100  8.478850 16.670600
95   1  0.7450  1.115680 21.753500  3.477520
96   1  0.8728 15.347100 18.980100 21.443800
97   1  0.7941  0.173576  7.486890 11.814300
98   1  0.8563  3.841320  7.732600  1.497910
99   1  0.7374 -0.058561 14.641400 10.895400
100  1  0.7831  3.928390 18.667600  2.167030
101  1  0.8854  6.679140  7.312080 12.897800
102  1  0.7876  5.199660  4.361650 21.910500
103  1  0.6731  6.451260 21.592600 12.744300
104  1  0.7965  6.920260 21.425500  1.872630
105  1  0.8038 10.908600 10.013000 11.250200
106  1  0.7858 10.336100  5.557710  1.489180
107  1  0.7907  8.888130  0.370979 16.367300
108  1  0.7491  8.225270 15.984700  0.403400
109  1  0.6811 14.800200 10.021900  9.202650
110  1  0.6687 15.444900  7.377440 23.410300
111  1  0.6786 12.216100 20.527400 15.412400
112  1  0.7569 15.130600 19.141600  1.759740
113  1  0.8498  1.227350  3.495090 22.845300
114  1  0.7705 13.859200  6.319390 13.253100
115  1  0.7047  3.534760 11.683500 23.714200
116  1  0.7376  2.119540 16.794500 14.350700
117  1  0.8617  2.216910  4.327740  2.363030
118  1  0.8312  6.917550  2.053530 12.793500
119  1  0.6833  4.423100 14.877600  0.934940
120  1  0.7761  4.883510 14.817000 12.012900
121  1  0.8211  8.012990 23.007800 23.799000
122  1  0.7759  8.636580  4.239060 15.787000
123  1  0.7328  9.691760 13.164500  3.371370
124  1  0.6859  8.059120 15.910500 13.487300
125  1  0.8536 12.741900  2.963710 23.833300
126  1  0.8431  9.437570  5.593370 11.303800
127  1  0.8519  0.333103 15.519600  3.232320
128  1  0.6515 13.638900 14.397900 12.503400
129  2 -0.5386 15.270600  0.561013  8.608390
130  2 -0.4862  0.250418  2.575360 18.971600
131  2 -0.3721 16.720700 17.052800  7.832570
132  2 -0.0393 15.984000 15.121000 22.779200
133  2 -0.5184  5.911820  3.909530 10.145000
134  2 -0.4438  3.469370  2.888430 24.501700
135  2 -0.6148  7.750540 15.447600 10.690300
136  2 -0.5014  5.239720 13.613100 19.054900
137  2 -0.5383 10.616700  3.697860  6.932220
138  2 -0.5857  7.516800  4.782760 20.131800
139  2 -0.0650 11.739100 17.609700  8.987050
140  2 -0.2774  9.424310 14.804200 20.156300
141  2 -0.4627 12.499100  5.236950 10.819800
142  2 -0.5975 14.667200  3.017300 22.173300
143  2 -0.6511 15.316400 12.252700 10.289800
144  2 -0.2013 15.124500 11.172500 20.152900
145  2 -0.4231  9.902240  6.655540  7.920100
146  2 -0.4158 16.107800  4.759590 12.018300
147  2 -0.4301  2.764430 22.373400  6.151930
148  2 -0.6861  7.275850 20.995700 16.305100
149  2 -0.2887 10.326100  2.582010  1.144020
150  2 -0.7172  6.920300  4.603770 13.478100
151  2 -0.5470  8.239030 21.444400  3.969600
152  2 -0.5268 10.835500 20.867700 13.107000
153  2 -0.5653 13.631300  8.840790  0.635158
154  2 -0.6988 12.003700 11.241200 14.745000
155  2 -0.2873 13.885100 19.316100  4.742700
156  2 -0.7314 10.738500 21.365200 17.867200
157  2 -0.4818  1.426270 12.888800  1.485960
158  2 -0.6530 14.071800  6.313870 16.562300
159  2 -0.5079  0.817526 18.099300  3.280980
160  2 -0.5411 -0.295788 19.095000 17.537800
161  2 -0.4357 17.216100 10.579500 11.892900
162  2 -0.7477  5.425980 12.647100 22.435700
163  2 -0.5091  5.961730 20.221900  8.117760
164  2  0.0295 12.467000 12.344700 24.054800
165  2 -0.4220  6.595140 11.310400 11.673100
166  2 -0.5583  7.854640  9.549000 20.979400
167  2 -0.7312  5.547500 23.631700 10.993400
168  2 -0.3272  0.212183 17.146100 20.785900
169  2 -0.7200 11.585600 11.030300  8.712600
170  2 -0.1980 10.060300 11.202100 19.937600
171  2 -0.4399 10.780400 22.901700  7.159210
172  2 -0.4338 14.417300 17.222400  0.211379
173  2 -0.6024 16.136500 16.207200 13.878300
174  2 -0.3930 13.872600  7.524110 20.458400
175  2 -0.2058 16.584100 20.671100 14.209000
176  2 -0.5599 15.154500 20.811100 23.433200
177  2 -0.4639 16.631300  4.071070  1.327710
178  2 -0.2180 14.287100 -0.322902 13.396500
179  2 -0.3925  2.548480 16.767800 24.752300
180  2 -0.5391 15.645700 12.625800 13.895400
181  2 -0.4627  5.883900  0.883298  1.700130
182  2 -0.7424  6.678800  2.085730 15.887500
183  2 -0.6939  8.219730 10.101600  4.007050
184  2 -0.3494  6.286030 10.476400 17.283600
185  2 -0.4764  8.157510  1.786810  3.249270
186  2 -0.6352 11.967400  0.535914 15.865200
187  2 -0.6681  6.494090 13.601100  4.228750
188  2 -0.6611  8.040520 13.856100 15.768300
189  2 -0.5895 13.639900  0.367329 24.643600
190  2 -0.4880 15.138900  3.437120 16.109800
191  2 -0.6663 13.953000 12.726100  6.995650
192  2 -0.6543 12.233900 14.325300 16.525900
193  2 -0.5228  3.691030 15.615800  3.626190
194  2 -0.7400  2.334730  6.887790 13.678300
195  2 -0.4855  1.522410  1.219930  2.783540
196  2 -0.4388  2.242740 23.017100 17.197700
197  2 -0.5419  5.074420 13.416400  9.805280
198  2 -0.4136  1.615030 12.683300 14.935500
199  2 -0.5898  1.975200  1.955940  9.800380
200  2 -0.5289  5.024230 19.776200 18.427500
201  2 -0.5508 12.322400 10.221800  3.374010
202  2 -0.6101  4.952350  7.059820 19.896400
203  2 -0.1041 12.411000  1.438410  3.556770
204  2 -0.6819  9.958420 21.165400 21.597200
205  2 -0.4742 14.843900 15.702700  4.572810
206  2 -0.5139  2.804620  9.171590 16.589900
207  2 -0.1822 14.226300  2.414700  3.800710
208  2 -0.8073 13.511400 21.584600 20.578700
209  2 -0.3974 14.007700  4.386540  7.304860
210  2 -0.5838 16.835500 21.720200 20.338300
211  2 -0.7686  6.456120 10.916700  7.636640
212  2 -0.5511  2.570730  9.117200 19.960500
213  2 -0.6723  7.084330 23.463500  6.956380
214  2 -0.3927  2.731070 19.464500 22.171500
215  2 -0.4717  8.561050  9.482170  9.313650
216  2 -0.0573 11.234600 11.137900 22.972300
217  2 -0.3945 16.396300 21.512700 11.076300
218  2 -0.5878  9.461440  5.492410 23.010700
219  2 -0.7277  0.067282 10.097500  7.490780
220  2  0.0100 13.683600 11.126000 21.635200
221  2 -0.2810 16.946900  1.252510  5.690340
222  2 -0.4847 13.503100  3.480000 19.413800
223  2 -0.7638  3.141370  9.783360  6.327150
224  2 -0.7563 15.166800 10.949700 16.608000
225  2 -0.5873  4.732740  4.429140  2.932590
226  2 -0.6178  4.017940  2.496660 13.151200
227  2 -0.7148  5.014030 20.662700  3.440450
228  2 -0.4613  2.608430 19.692100 15.356800
229  2 -0.3406  7.568160  0.775581 21.041000
230  2 -0.7403  6.227150  5.705470 16.949300
231  2 -0.4539  7.401150 19.341000 23.864300
232  2 -0.6432  7.504110 18.818400 13.026500
233  2 -0.5106  9.806130  8.375990  0.764155
234  2 -0.6005  9.405810  7.617970 12.930700
235  2 -0.5562  7.386720 18.316200  2.359030
236  2 -0.7343 10.638400 17.082300 15.007900
237  2 -0.7272 12.603800  5.505080  0.027528
238  2 -0.7494 10.810100  4.631930 14.444300
239  2 -0.3387 10.667000 15.506600 23.600800
240  2 -0.6131  1.192290 16.104000 16.860200
241  2 -0.7325 16.687300  6.739760  8.604260
242  2 -0.5714  2.735270  4.259050 20.756400
243  2 -0.6372  2.290560 14.523500  9.168100
244  2 -0.4459  6.350190 15.566300 21.517100
245  2 -0.5451  2.915910  8.554910 10.133300
246  2 -0.4986  6.396760  6.556900  0.786782
247  2 -0.7140  2.244020 19.860800  8.991710
248  2 -0.6465  5.753800 16.827900  0.115934
249  2 -0.3857  4.836090  5.848430 11.904000
250  2 -0.2185  8.431920  2.343310 23.832200
251  2 -0.3586  8.772330 20.222900 10.012000
252  2 -0.5768 10.565700 18.765900  0.925235
253  2 -0.7263 13.560300  8.680810 11.473600
254  2 -0.5421  0.104675  5.983180 21.244300
255  2 -0.4667 14.378200 15.629400 10.004300
256  2  0.0346 14.240400 14.219200 22.322500
257  2 -0.5519  6.437090  7.354710  4.573070
258  2 -0.9466 16.032900  7.700560 14.158300
259  2 -0.5270  2.360220 20.286900  0.780821
260  2 -0.8577  4.397530 17.650800 11.317600
261  2 -0.6646 16.050600  9.277320  3.677130
262  2 -0.3418  4.903450  9.354260 13.901800
263  2 -0.5741  5.289980 -0.104128 23.068300
264  2 -0.5778  4.245770 22.636500 14.645100
265  2 -0.3923 10.040700 11.629900  1.361150
266  2 -0.4398  8.578650 11.108900 13.781800
267  2 -0.1971 11.713600 21.446300  3.168500
268  2 -0.6063  8.807670 -0.102591 13.538900
269  2 -0.5459  1.241090  8.824450  0.981034
270  2 -0.6509 10.757700 12.865200 11.730200
271  2 -0.3844 14.887200 21.905700  3.056620
272  2 -0.7486 13.164800 18.784000 17.667200
273  2 -0.2404  0.433993  1.171700 12.763300
274  2 -0.5561  2.759750  6.112390 23.422400
275  2 -0.3898  3.455400 12.568100 12.332300
276  2 -0.6709  4.349300 10.517800  2.416710
277  2 -0.6844  9.720910  2.931370 10.748500
278  2 -0.1338 10.860300 22.862000  1.733980
279  2 -0.5826  4.897010 14.801500 14.778800
280  2 -0.7951  9.128320 15.656600  3.260730
281  2 -0.1869 14.002100  2.447370 12.486400
282  2 -0.5168 10.939400  1.521430 21.890800
283  2 -0.3230 10.639400 15.782200  8.688490
284  2 -0.3951 14.517000 13.820000  1.583220
285  2 -0.6071 11.804200  0.304328 10.241300
286  2 -0.6950  0.997048  0.867398 23.537200
287  2 -0.5916  0.703574 18.429400 11.653900
288  2 -0.3745  0.454018 11.008000 22.399600
289  2 -0.4761  3.294070  2.489800  6.291640
290  2 -0.6532  4.491050  0.555039 19.663100
291  2 -0.5028  3.821160 16.835400  6.749460
292  2 -0.2552  4.095140 11.192600 15.809300
293  2 -0.6777  6.492740  3.830240  6.285210
294  2 -0.5387  9.532130  2.122860 18.543000
295  2 -0.6096 10.427500 13.625900  6.247960
296  2 -0.5223  6.719010 17.243200 16.207000
297  2 -0.7356  9.857070  5.781170  4.004670
298  2 -0.4947 10.999400  5.322600 17.711200
299  2 -0.4107 13.644600 20.106100  8.278180
300  2 -0.0535 11.827900 13.497400 20.523100
301  2 -0.4535 15.614400  5.699950  4.355120
302  2 -0.7055  0.342275  7.396670 17.859100
303  2 -0.6035  0.826763 12.894800  4.976250
304  2 -0.5453  0.978466 13.204200 19.643000
305  2 -0.6006  2.442670  7.165600  3.645060
306  2 -0.6030  3.204250  3.531100 17.214100
307  2 -0.4775 16.801300 20.915000  6.170470
308  2 -0.4815  3.210350 16.720900 19.701100
309  2 -0.5638  4.840710  6.198730  7.884060
310  2 -0.6808  4.377690  9.291800 23.593400
311  2 -0.6682  7.195910 16.440700  7.061470
312  2 -0.6292  6.380320 18.954500 20.841500
313  2 -0.4414  7.282710  6.720020 10.119800
314  2 -0.5078  8.548280  8.367640 16.099600
315  2 -0.4275 10.134100 19.454800  6.308840
316  2 -0.6591  9.693340 18.344100 19.052100
317  2 -0.8589 12.667100  7.531240  5.644670
318  2 -0.4452 12.002700  8.883100 18.302000
319  2 -0.4860 13.596300 18.734400 11.911600
320  2 -0.5069 13.287100 17.219400 20.758300

