Generated by pymatgen.io.lammps.data.LammpsData

320  atoms

  2  atom types

0.000000 24.637781  xlo xhi
0.000000 17.058433  ylo yhi
0.000000 27.370788  zlo zhi

Masses

1  208.9804
2   78.9600

Atoms

1    1  0.7072 -1.091420 18.189400  1.138110
2    1  0.6622 -1.785330  1.708890 13.957300
3    1  0.7020 -1.606570  9.759060  1.079710
4    1  0.8266 22.159600  9.701890 14.272100
5    1  0.6226 11.216500  1.260130  0.361709
6    1  0.7583  9.828920  1.259740 14.248200
7    1  0.6080 11.900800  9.653760  0.643096
8    1  0.7457 10.237100 10.124300 13.728300
9    1  0.6997  3.988620  5.720680 10.600200
10   1  0.7480  5.052290  5.702320 23.902900
11   1  0.6576  3.261580 14.456600 10.950400
12   1  0.7826  5.202430 14.258200 23.141200
13   1  0.7459 15.569000  5.520720  9.927280
14   1  0.7286 17.221200  5.484520 23.677400
15   1  0.6896 16.139400 13.817700  9.997750
16   1  0.7113 17.092100 13.625600 23.000800
17   1  0.6207  4.007470  5.933250  5.391160
18   1  0.6592  5.486780  5.536050 18.794900
19   1  0.5958  5.112930 15.518200  3.813270
20   1  0.7839  4.780480 14.380000 18.991800
21   1  0.6434 17.020500  5.290230  5.580870
22   1  0.7257 18.160300  5.424560 19.426800
23   1  0.7218 16.372700 14.534300  5.630820
24   1  0.7250 17.855200 13.919300 19.448000
25   1  0.7606 22.039000 18.557800 10.427300
26   1  0.8189 -1.198340  1.367080 24.066400
27   1  0.7248 -2.610440 10.452600 10.527400
28   1  0.7341 -1.251750 10.160500 23.197000
29   1  0.8965  9.778180  1.405050  9.768550
30   1  0.6616 11.619700  1.473910 23.242600
31   1  0.7718 10.519900  9.590210  8.938800
32   1  0.7048 11.469200 10.067500 22.674700
33   1  0.5581  0.242794  5.776120  1.298130
34   1  0.7838 21.660700  5.367950 13.839600
35   1  0.7182 -1.885870 14.151100  0.439160
36   1  0.7223 -2.219810 14.083400 14.475900
37   1  0.6764 11.652700  5.816680  0.168172
38   1  0.5429  9.371410  6.532480 14.149300
39   1  0.7058 11.839300 13.947600 26.608600
40   1  0.7023 10.044900 13.749400 13.185600
41   1  0.7274 21.912500  5.404230  9.329310
42   1  0.7192 -0.644276  5.624860 23.909300
43   1  0.7363 21.939500 13.982500 10.042900
44   1  0.6918 -0.922162 14.387500 23.361300
45   1  0.7167  9.776600  5.839690 10.096300
46   1  0.7581 11.295000  5.555140 22.990000
47   1  0.8416  9.917800 14.009500  9.427810
48   1  0.6927 11.753500 13.926700 22.549900
49   1  0.6053  4.198130 18.514600  5.858730
50   1  0.6815  3.933580  1.693150 19.094800
51   1  0.6302  4.141680  9.700550  6.245550
52   1  0.8025  5.147360  9.916820 19.199900
53   1  0.7043 16.107700  1.464490  5.334030
54   1  0.7013 17.731700 18.073000 19.183900
55   1  0.6224 16.460000  9.440200  5.287060
56   1  0.7464 17.794700  9.312000 18.864100
57   1  0.7809  4.044100  1.813820 10.338200
58   1  0.7296  4.979710 18.277800 23.655200
59   1  0.6850  3.892600  9.658880 10.200100
60   1  0.7195  5.129360  9.684590 23.212400
61   1  0.6470 15.944400 17.785200 10.072500
62   1  0.7516 17.231900  1.343960 23.643600
63   1  0.7535 15.985100  9.612810  9.925500
64   1  0.7284 17.486800  9.502820 23.633700
65   1  0.7289  2.516970  7.859150 25.972000
66   1  0.7659  0.607995  8.208440 11.627900
67   1  0.6625  1.572930 15.604300 25.594200
68   1  0.6924  0.404713 16.315300 12.636300
69   1  0.7389 14.866300  7.483220 25.857900
70   1  0.7069 12.393000  7.489500 11.934100
71   1  0.7604 14.481600 15.692600 24.753400
72   1  0.7861 12.963200 15.775200 11.785400
73   1  0.7550  8.852240  7.644790 25.289600
74   1  0.7144  6.759480  7.823390 12.139800
75   1  0.6912  8.331120 16.413300 24.973900
76   1  0.6868  7.183660 15.878500 12.083500
77   1  0.6782 20.945500  6.613480 25.967000
78   1  0.7705 18.797500  7.126990 12.223100
79   1  0.7682 20.619300 16.143700 25.544400
80   1  0.7397 19.696400 16.103900 12.446700
81   1  0.7546  1.807070  3.393050 26.118900
82   1  0.7296  0.781535  3.898420 11.849700
83   1  0.6771  2.405610 12.149400 26.762600
84   1  0.7075  0.274625 12.213200 12.393600
85   1  0.7679 14.401000  3.535490 25.762900
86   1  0.7518 12.310500  3.126110 12.045600
87   1  0.7895 14.541600 11.435400 24.920600
88   1  0.7531 12.791400 11.320300 11.287500
89   1  0.6237  8.200420  3.340790 25.505000
90   1  0.7247  6.946940  3.269230 12.553800
91   1  0.7840  8.592670 11.958300 24.468000
92   1  0.6880  7.105490 11.494600 12.234400
93   1  0.7500 20.047700  3.214980 25.758600
94   1  0.7690 19.124100  2.979720 12.276900
95   1  0.8408 20.652000 11.531000 25.846000
96   1  0.7346 19.100000 11.984600 12.199300
97   1  0.8174  0.991104  8.126040  8.071210
98   1  0.7203  2.475020  8.141450 20.832200
99   1  0.8137  1.245710 16.120900  7.783980
100  1  0.7417  2.087100 16.576300 21.251000
101  1  0.7029 13.352400  7.400640  7.039840
102  1  0.7706 14.737500  7.295460 21.179000
103  1  0.8289 12.939500 16.371800  7.836540
104  1  0.6629 14.848000 15.501300 20.658800
105  1  0.6463  6.504880  7.443190  7.764340
106  1  0.7467  8.200640  7.161710 20.316900
107  1  0.7215  6.412560 16.768500  8.118140
108  1  0.7252  7.790210 16.536800 20.350100
109  1  0.6666 18.857900  7.678500  7.619880
110  1  0.7345 20.357500  7.573130 21.342700
111  1  0.6958 19.165800 15.836200  8.080850
112  1  0.8246 20.454900 16.071400 21.588800
113  1  0.8296  0.731585  3.462190  8.042410
114  1  0.6492  1.605570  4.060450 21.209100
115  1  0.8256  0.752697 12.317000  7.622160
116  1  0.8339  2.369080 11.874400 21.177200
117  1  0.8195 13.274100  3.787560  8.043250
118  1  0.7309 14.989900  3.732360 20.621600
119  1  0.7075 13.606700 11.566300  7.233270
120  1  0.6024 14.239900 11.418500 20.524500
121  1  0.6798  6.722830  4.156010  7.815240
122  1  0.7471  7.498270  3.134060 20.821900
123  1  0.6934  6.545410 12.058200  7.669620
124  1  0.6547  8.492220 11.720200 20.758100
125  1  0.7703 19.341900  3.067040  8.383040
126  1  0.8744 20.578100  3.525630 21.602400
127  1  0.8058 18.965000 12.020100  7.884980
128  1  0.7939 20.098800 11.540700 21.508500
129  2 -0.8287  6.858340  5.870180 10.250100
130  2 -0.6870  8.005400  5.403180 22.826600
131  2 -0.7140  7.184850 14.193700  9.999560
132  2 -0.7198  8.588810 14.453700 22.654200
133  2 -0.7983 19.014800  5.091770 10.152300
134  2 -0.7976 20.417300  5.293820 23.816300
135  2 -0.8774 18.917700 14.041500 10.359800
136  2 -0.7247 20.052300 13.673800 23.377400
137  2 -0.7483  0.232085  5.712720  9.847070
138  2 -0.7612  2.253380  5.629540 24.262800
139  2 -0.7388  0.264216 14.302600 10.401300
140  2 -0.7223  2.102150 14.351200 22.873400
141  2 -0.8275 12.847000  5.592600  9.896650
142  2 -0.7950 14.692600  5.542690 22.929700
143  2 -0.7496 13.064400 13.873200  9.625620
144  2 -0.9155 14.214200 13.637400 23.167400
145  2 -0.1969 16.795200  3.933040  2.809470
146  2 -0.1173 -1.505830  3.951270 16.858000
147  2 -0.1916 15.774000 12.595200  2.993320
148  2 -0.0609 -1.158900 12.095900 17.698200
149  2 -0.0251  9.895350  4.000620  3.939910
150  2 -0.0865 13.798900  6.201720 15.219100
151  2 -0.0086  6.002220 11.469700  1.738400
152  2 -0.1236 11.403600 12.148400 17.449000
153  2 -0.0611 -2.017440 10.503600  4.283580
154  2 -0.1859 21.480800  7.313020 16.452200
155  2 -0.4703 20.203200 13.975400 -0.070830
156  2 -0.2028  5.220410 15.790500 16.511500
157  2 -0.0655  8.918600  6.750530  4.009370
158  2 -0.2396 18.262000  7.126230 16.809500
159  2 -0.1146 13.377400 16.238900  2.431760
160  2 -0.1255 11.088700  3.034660 17.280900
161  2 -0.7375  7.203620 18.618600  9.934250
162  2 -0.7862  7.837650 18.545100 22.989700
163  2 -0.6852  6.914940  9.460110  9.786090
164  2 -0.7499  8.199600  9.593910 22.893300
165  2 -0.8479 19.160400 18.038800 10.316300
166  2 -0.7367 20.468500 18.407800 23.564100
167  2 -0.7545 19.198100 10.040400 10.104000
168  2 -0.7486 20.521300  9.747870 23.587200
169  2 -0.7088  0.748852 18.693700 10.059900
170  2 -0.6577  1.948230 18.462900 24.218300
171  2 -0.7868  0.817019 10.288100  9.844760
172  2 -0.7258  2.188540  9.677810 23.177100
173  2 -0.7556 12.607400 18.381600 10.169600
174  2 -0.6778 14.660600 18.150400 22.209600
175  2 -0.8316 13.492600  9.425800  9.062160
176  2 -0.8146 14.233700  9.731680 22.850500
177  2  0.0067 10.220900  1.899770  4.103320
178  2 -0.0441  0.718203  4.730620 16.660200
179  2 -0.1698  5.690430 13.800000  0.844379
180  2 -0.2723 19.145000 15.845500 17.544700
181  2 -0.0581 20.310800  3.776460  2.790860
182  2  0.0397 15.223200  4.678060 15.924000
183  2 -0.0454 20.970700 11.787300  3.908140
184  2  0.0366 14.530700  8.884160 16.323900
185  2 -0.1198  8.998160  8.812220  3.602400
186  2 -0.0149  3.208990  9.273300 15.796000
187  2  0.0357  9.999940 16.359800  4.613290
188  2 -0.2369  4.156860  3.164960 16.293600
189  2 -0.3360 -1.990850  6.364550  2.806120
190  2 -0.1616 11.060700  7.452700 16.924200
191  2 -0.0861 17.358500 17.514100  2.579110
192  2 -0.0667 13.143300 17.187500 17.121900
193  2 -0.3272  5.256860  4.248400  3.857070
194  2 -0.0698  2.447400  7.551490 16.442900
195  2 -0.3731  0.995035 14.413900  5.491900
196  2 -0.3874  2.177800 14.014100 19.145500
197  2 -0.4800 13.325000  5.060330  5.566790
198  2 -0.4746 15.384000  6.025540 18.782000
199  2 -0.1382 11.640900 14.583500  2.461690
200  2 -0.4578 14.966400 13.266300 18.517500
201  2 -0.4333  0.754775  5.919490  6.156190
202  2 -0.4237  8.180600  4.458760 18.198000
203  2 -0.3386  7.681600 14.414200  5.536220
204  2 -0.3818  8.079030 13.610600 18.604500
205  2 -0.5175 19.675000  4.652740  6.551360
206  2 -0.3556 21.358300  5.390900 19.452500
207  2 -0.4560 19.613000 14.158700  6.112370
208  2 -0.3928 20.648300 13.396600 19.482200
209  2 -0.7479 21.835000  7.938030 12.561700
210  2 -0.7408 -0.655241  7.720900 26.016500
211  2 -0.9015 -2.132050 16.244000 12.535000
212  2 -0.9319 -1.468260 16.143700 25.642100
213  2 -0.9003  9.909400  8.241620 11.766000
214  2 -0.7421 11.518100  7.940390 24.917400
215  2 -0.8567 10.149400 15.919000 11.717100
216  2 -0.8365 11.652800 15.898000 24.687900
217  2 -0.9643 22.045800  3.595930 11.981400
218  2 -0.7957 -1.300550  3.418360 25.821200
219  2 -0.9699 22.377800 12.006800 12.680600
220  2 -0.7994 -1.350400 11.562300 25.833000
221  2 -0.8802  9.560160  3.068290 11.847500
222  2 -0.8823 11.924300  3.946640 25.305100
223  2 -0.8438  9.898520 11.974900 10.936900
224  2 -0.8177 11.327100 11.642700 24.676800
225  2 -0.5155  0.650057 13.809000  1.347600
226  2 -0.2768 -0.185769 17.266800 15.839200
227  2 -0.2690  3.567040  6.972230  1.306240
228  2 -0.4149  0.369895  9.912030 14.022000
229  2 -0.3977 14.182900 18.872800  0.371090
230  2 -0.4907 12.299700  1.243520 13.958200
231  2 -0.4798 14.646900 10.315700  0.228231
232  2 -0.4722 12.816900  9.600560 13.591200
233  2 -0.4378  8.429350 17.950900  0.609377
234  2 -0.4002  7.005130 18.199200 14.567500
235  2 -0.2489  9.042350 10.200900  0.516517
236  2 -0.5206  7.627000  8.572660 14.808200
237  2 -0.3558 20.754900 17.974000  0.986012
238  2 -0.3865 19.700400 17.998500 14.764900
239  2 -0.4065 20.170200  9.614940  0.496952
240  2 -0.3389 18.817800  9.581320 14.424300
241  2 -0.9881  3.730400  7.987320  8.200490
242  2 -0.8686  5.064090  7.636130 20.785100
243  2 -0.8008  3.728160 16.377700  8.417700
244  2 -0.8892  4.807090 16.322200 21.167600
245  2 -0.9147 15.955400  7.863580  7.375440
246  2 -0.8980 17.590200  7.468380 21.369200
247  2 -0.8920 15.550300 16.260600  7.619350
248  2 -0.8891 17.669600 15.922200 21.357100
249  2 -0.8295  3.962540  3.275860  8.167150
250  2 -0.8461  4.734590  3.887810 20.877500
251  2 -0.7181  3.904520 12.514300  8.280470
252  2 -0.8132  5.065380 12.093800 21.129300
253  2 -0.8138 15.919300  3.466290  8.105660
254  2 -0.8595 17.674200  3.340090 21.347800
255  2 -0.8326 16.291600 12.014700  7.413330
256  2 -0.8601 17.507500 11.442200 20.960300
257  2 -0.4542  8.726090  5.958300 27.400100
258  2 -0.0811 11.217900  9.690620 16.843100
259  2 -0.3514  8.589180 13.591500 26.803700
260  2 -0.4608  8.028540 12.693400 14.655700
261  2 -0.0578 -2.310300  3.278730  3.882840
262  2 -0.4225 18.794400  5.040420 14.050300
263  2 -0.0933 -2.118650 16.380100  3.804300
264  2 -0.3665 19.381700 13.718300 14.816800
265  2 -0.5039  1.829300  1.345300  0.749503
266  2 -0.3985  0.128278  6.196730 13.595900
267  2 -0.3408  2.375440 10.339900  1.538210
268  2 -0.3341  1.843430 14.590200 14.509200
269  2 -0.5281 14.076200  6.125230  0.999165
270  2 -0.2501 17.880500  3.116450 16.892400
271  2 -0.3065 14.940700 14.252200 27.058000
272  2 -0.3511 12.794900 13.472300 13.750300
273  2 -0.3893 -2.137660  2.439870  7.963630
274  2 -0.5351 -1.199370  3.277460 22.121300
275  2 -0.4467 22.101700 11.961600  8.080450
276  2 -0.3947 -0.705960 12.746800 21.212400
277  2 -0.4116  9.927880  3.248960  7.877270
278  2 -0.4022 11.349600  3.846620 20.970400
279  2 -0.4150  9.837680 12.004400  7.222490
280  2 -0.4659  7.672170  9.788460 18.557600
281  2 -0.3899 -2.139930  8.314350  8.326780
282  2 -0.4534 -1.220860  7.825510 21.227800
283  2 -0.4591 -2.378190 16.199900  8.667560
284  2 -0.4505 -1.164360 16.459000 21.614200
285  2 -0.5593  9.497120  7.605930  7.677410
286  2 -0.4636 11.087400  7.938850 20.561900
287  2 -0.4238 10.144100 16.627300  7.731800
288  2 -0.4095 12.093200 16.206500 20.439400
289  2 -0.4255  7.072900  1.590110  5.665910
290  2 -0.3979  7.509470 18.184400 18.297400
291  2 -0.3170  5.417960  8.436640  4.058750
292  2  0.0086  0.490078 11.197100 16.682200
293  2 -0.2848 19.307300  1.475040  5.396790
294  2 -0.4015 20.583300 18.374100 20.086800
295  2 -0.4090 19.565400  9.949200  6.050170
296  2 -0.4514 20.411200  9.607720 19.069800
297  2 -0.4186  1.106950 18.638400  5.624360
298  2 -0.3931  1.243400  2.008240 19.017100
299  2 -0.3976  1.043620 10.223100  5.826440
300  2 -0.5654  2.528160 10.025400 19.241400
301  2 -0.3433 13.313800 18.252700  5.337410
302  2 -0.0047 14.749300 16.250600 15.767100
303  2 -0.3541 13.036800 13.691500  5.518750
304  2 -0.0668 15.844100 10.421000 16.376100
305  2 -0.5937  3.660980  3.665470 12.228000
306  2 -0.4613  4.961050  3.583350 25.703300
307  2 -0.3648  4.206690 12.001200 13.218600
308  2 -0.5161  5.445700 12.121100 24.836700
309  2 -0.3370 15.413200  3.229530 12.497400
310  2 -0.5547 17.291100  3.031050 25.768600
311  2 -0.4791 15.427600 11.371400 11.855700
312  2 -0.4559 17.556100 11.718300 25.280700
313  2 -0.4936  3.698260  7.798170 12.597300
314  2 -0.4370  5.305440  7.858250 25.848700
315  2 -0.3834  4.102090 17.299800 12.806700
316  2 -0.4838  4.878750 15.992000 25.386500
317  2 -0.4300 15.606200  6.948170 12.176800
318  2 -0.5723 17.321500  7.123890 25.922300
319  2 -0.3921 15.624000 15.531500 12.536400
320  2 -0.3864 17.155500 16.615000 25.711100

