Generated by pymatgen.io.lammps.data.LammpsData

216  atoms

  2  atom types

0.000000 18.076143  xlo xhi
0.000000 18.104289  ylo yhi
0.000000 18.233787  zlo zhi

Masses

1  208.9804
2   78.9600

Atoms

1    1  0.7900  0.088077 18.110600 18.300900
2    1  0.7819  0.137270 18.004700  6.171330
3    1  0.7969  0.062023 18.248700 12.304100
4    1  0.8204  0.165021  5.914140 18.198200
5    1  0.8272  0.056832  6.047730  6.116220
6    1  0.7847  0.206160  6.141480 12.343300
7    1  0.7954  0.126092 11.984800  0.085275
8    1  0.8002  0.170018 12.063500  6.058970
9    1  0.7913  0.055209 12.283100 12.201200
10   1  0.7992  6.017330 18.193200 18.444400
11   1  0.7847  5.942850 18.209000  5.854030
12   1  0.7866  6.028330 18.312500 12.167400
13   1  0.8121  6.171980  6.070580  0.055232
14   1  0.8181  6.190930  6.168380  5.959950
15   1  0.8103  6.133340  6.118180 11.916200
16   1  0.7690  6.168950 12.037600  0.132528
17   1  0.8068  6.112590 11.998900  6.040120
18   1  0.7656  6.203270 12.169400 12.293400
19   1  0.7954 12.128700 18.146600  0.047560
20   1  0.7902 12.015600 18.194300  6.067290
21   1  0.7619 12.218900 18.098200 12.265300
22   1  0.7903 12.213500  6.032710  0.113567
23   1  0.8013 12.263800  6.180080  6.174680
24   1  0.7879 12.183900  6.191830 12.126900
25   1  0.8034 12.149600 12.152200  0.082441
26   1  0.8136 12.200600 12.115000  6.043230
27   1  0.7918 12.113300 12.293300 12.131000
28   1  0.8048 -0.012331  3.010240  3.010930
29   1  0.8051  0.192566  2.973180  9.204990
30   1  0.8185  0.160784  3.131760 15.153600
31   1  0.8032 -0.021258  9.087460  3.119740
32   1  0.7857  0.052597  9.020770  9.130430
33   1  0.7723  0.006877  9.093640 15.275600
34   1  0.7950  0.208852 15.037400  3.026150
35   1  0.7921  0.015948 15.134200  9.094020
36   1  0.8242  0.051233 14.972800 15.289800
37   1  0.7927  6.017830  2.982140  3.040940
38   1  0.7809  6.284910  2.990530  9.218090
39   1  0.7893  6.133630  3.070890 15.156700
40   1  0.7810  6.125130  9.064100  2.959110
41   1  0.7869  5.990830  8.980730  9.162630
42   1  0.8158  5.986310  9.156660 15.046500
43   1  0.7943  6.151810 15.227800  3.064480
44   1  0.7715  6.024120 15.005900  9.141660
45   1  0.7869  6.065670 15.119300 15.243200
46   1  0.7933 12.099300  3.078710  3.026020
47   1  0.8199 12.347700  2.921600  9.136060
48   1  0.7633 12.180700  3.030570 15.145000
49   1  0.7948 12.234200  9.190110  3.132700
50   1  0.8199 12.105400  8.959300  9.119270
51   1  0.7983 12.237800  9.237300 15.097300
52   1  0.7922 12.239400 15.244200  3.180610
53   1  0.7750 12.013200 15.106700  9.152350
54   1  0.8105 12.204800 15.242000 15.344600
55   1  0.7859  3.037200 18.268000  2.990810
56   1  0.7919  3.170560 18.134400  9.023060
57   1  0.7928  3.081850 18.321900 15.120500
58   1  0.8360  3.136060  6.153430  3.123400
59   1  0.7969  3.138280  6.153930  9.036120
60   1  0.7961  3.181540  6.121090 15.178700
61   1  0.7932  3.036580 12.271000  3.003180
62   1  0.7941  3.020430 12.093500  8.997930
63   1  0.7729  3.001940 12.098400 15.155500
64   1  0.8086  9.231110 18.341900  3.005180
65   1  0.7750  9.184150 18.092100  9.087350
66   1  0.8113  9.069280  0.127583 15.135500
67   1  0.7705  8.939650  6.235160  3.032550
68   1  0.7887  9.273820  5.929400  9.079210
69   1  0.7841  9.105640  6.292340 15.010900
70   1  0.7922  9.046780 12.260400  2.899720
71   1  0.7754  9.103960 11.979400  9.041010
72   1  0.8128  9.117960 12.290800 15.016400
73   1  0.7792 15.221200 18.313200  2.983940
74   1  0.8080 15.100100 18.230900  9.182490
75   1  0.7795 15.213100 18.314100 15.091300
76   1  0.7927 14.953200  6.150140  2.949540
77   1  0.8246 15.257900  6.171790  9.053010
78   1  0.8065 15.078100  6.093310 15.040300
79   1  0.8111 15.053300 12.152900  3.018450
80   1  0.8026 15.092600 12.191900  9.011300
81   1  0.7755 15.122100 12.075100 14.984300
82   1  0.7908  3.213310  3.093490  0.021305
83   1  0.8130  2.922170  3.124480  6.123050
84   1  0.7942  2.981480  3.051300 12.091800
85   1  0.7572  2.964740  8.927810  0.036538
86   1  0.7933  3.009790  9.224120  6.147440
87   1  0.7963  2.972310  9.096920 12.041500
88   1  0.7858  3.148190 15.060100 -0.210842
89   1  0.7898  3.030480 15.349200  6.192140
90   1  0.8134  3.060860 15.356500 12.277000
91   1  0.7678  9.141490  2.989430  0.113576
92   1  0.7897  8.902910  2.976110  6.250560
93   1  0.7866  9.236120  3.252610 12.267500
94   1  0.7827  9.251850  9.175100 -0.044803
95   1  0.8122  9.033410  8.998850  6.249400
96   1  0.7988  8.931860  9.042840 12.123800
97   1  0.8087  9.200310 15.136100  0.038032
98   1  0.7906  9.008750 15.182000  6.083300
99   1  0.7904  8.979920 15.214800 12.341200
100  1  0.7917 15.069600  2.984250 -0.156267
101  1  0.8024 15.205000  2.999280  6.028240
102  1  0.8154 15.075200  3.218260 12.109400
103  1  0.8305 15.151300  8.955160  0.084851
104  1  0.7778 15.103400  9.046420  6.039620
105  1  0.7931 15.165500  9.223180 12.098600
106  1  0.8042 15.133400 14.978500  0.062423
107  1  0.8187 15.163100 14.943400  6.009130
108  1  0.7611 15.013500 15.322000 12.431000
109  2 -0.7956  3.129510  0.088714 -0.108921
110  2 -0.8449  3.040790 18.218500  5.982160
111  2 -0.8218  3.061350 18.238600 12.035100
112  2 -0.8035  3.142690  6.027160  0.123234
113  2 -0.7739  3.037120  6.158960  6.021370
114  2 -0.7945  3.158640  6.053430 12.233400
115  2 -0.8004  3.101140 12.034800  0.039189
116  2 -0.7958  3.072870 12.270400  6.094010
117  2 -0.7571  2.957730 12.221500 12.198700
118  2 -0.7864  9.093360  0.076060 -0.021851
119  2 -0.8008  8.970080 18.195900  5.848600
120  2 -0.7769  9.187420 18.146500 12.222100
121  2 -0.7708  9.083660  6.221280  0.008365
122  2 -0.7880  9.056100  6.051930  6.174860
123  2 -0.8359  9.063600  6.140350 12.105800
124  2 -0.8041  9.252440 12.234900 -0.029249
125  2 -0.7551  9.197560 11.991100  6.012790
126  2 -0.8090  9.109750 12.185000 12.115400
127  2 -0.7798 15.177400 -0.063696  0.007643
128  2 -0.7497 15.060700 -0.070175  6.169530
129  2 -0.8338 15.173500 18.318700 12.074800
130  2 -0.7746 15.193000  6.011170 -0.042482
131  2 -0.8000 15.267800  6.066590  6.038160
132  2 -0.7885 15.146800  6.186330 12.098500
133  2 -0.7779 15.160700 12.007100  0.165515
134  2 -0.8191 15.196000 12.131800  6.003890
135  2 -0.8071 15.048300 12.240200 12.068700
136  2 -0.7839  2.904600  3.162050  3.131190
137  2 -0.7950  3.036140  3.108400  9.126310
138  2 -0.8118  3.085290  3.117490 15.203800
139  2 -0.7704  3.078670  9.105470  3.209860
140  2 -0.8365  2.983350  9.020660  9.088350
141  2 -0.7969  3.138770  9.065860 15.075900
142  2 -0.7875  3.098510 15.213400  2.982940
143  2 -0.7910  3.079070 15.206400  9.100600
144  2 -0.8062  2.986430 15.257800 15.176800
145  2 -0.7856  9.124940  3.165110  3.189020
146  2 -0.8048  9.296680  2.923050  9.228260
147  2 -0.7873  9.090800  3.053990 15.204100
148  2 -0.7718  9.120230  9.318880  3.044020
149  2 -0.8046  9.208640  8.915180  9.106450
150  2 -0.7674  9.210750  9.275280 15.073100
151  2 -0.7849  9.104850 15.356200  3.140780
152  2 -0.7936  9.102330 15.144700  9.103260
153  2 -0.7909  9.043540 15.170100 15.282400
154  2 -0.8049 15.075400  3.128210  3.014270
155  2 -0.7800 15.249600  3.127270  9.068070
156  2 -0.8118 15.221700  3.105200 15.057400
157  2 -0.8273 15.023400  9.144820  2.999400
158  2 -0.7999 15.017300  9.096330  9.197460
159  2 -0.8083 15.171400  9.067080 15.147800
160  2 -0.7880 15.279500 15.158900  3.066160
161  2 -0.7586 15.121600 15.067100  9.081870
162  2 -0.8081 15.135300 15.051600 15.247700
163  2 -0.8083 18.242500 18.191100  3.148330
164  2 -0.7919 18.124300  0.021481  9.145640
165  2 -0.7840  0.035742 18.234400 15.215200
166  2 -0.7456 18.198200  6.055920  2.969740
167  2 -0.7859 18.171600  6.058200  9.002970
168  2 -0.8046  0.102047  6.032190 15.292600
169  2 -0.8051 18.224700 12.045200  2.939860
170  2 -0.7843 18.202000 12.108000  9.021080
171  2 -0.8220  0.035108 12.151200 15.154300
172  2 -0.8398  6.130980  0.136068  3.035900
173  2 -0.7859  6.046690  0.066391  9.166150
174  2 -0.7772  6.127930  0.155503 15.172500
175  2 -0.8240  6.014930  6.062990  2.968690
176  2 -0.8017  6.130890  6.077410  9.035420
177  2 -0.7651  6.150140  6.197140 15.094600
178  2 -0.8016  6.159810 12.096000  3.068160
179  2 -0.7893  6.022400 11.990600  8.960430
180  2 -0.8020  6.139400 12.000500 15.189900
181  2 -0.8149 12.191900 18.200300  3.033140
182  2 -0.8074 12.178100 18.153300  9.103520
183  2 -0.8155 12.198200 18.252300 15.324100
184  2 -0.8007 12.156100  6.161840  3.042690
185  2 -0.7924 12.363300  6.015730  8.993080
186  2 -0.7760 12.181300  6.208680 15.232300
187  2 -0.8104 12.205900 12.179300  3.122710
188  2 -0.7771 12.115800 12.092400  8.991870
189  2 -0.7773 12.092000 12.292200 15.222000
190  2 -0.7818 18.168900  3.027770 -0.067281
191  2 -0.7860 18.115200  3.106070  6.060590
192  2 -0.8088 18.086400  3.161970 12.199900
193  2 -0.8002 17.982500  8.964360  0.069667
194  2 -0.8135  0.065938  9.057730  6.024450
195  2 -0.8057 18.215600  9.084810 12.111700
196  2 -0.7840 18.276800 15.023100 -0.080155
197  2 -0.8009 18.122100 15.028800  6.075610
198  2 -0.7732 18.123700 15.215900 12.303400
199  2 -0.8124  6.106060  3.128450  0.160419
200  2 -0.7853  6.035670  3.104730  6.104200
201  2 -0.7954  6.084400  3.243260 12.137100
202  2 -0.7724  6.110560  9.018890 -0.062986
203  2 -0.8091  6.200430  8.940270  6.041080
204  2 -0.8223  6.115920  9.199190 12.020200
205  2 -0.7859  6.227020 15.183200  0.024238
206  2 -0.7748  6.092050 15.007600  6.077330
207  2 -0.8026  5.963550 15.261300 12.358000
208  2 -0.8157 12.255000  3.026630  0.017833
209  2 -0.7575 12.210200  3.066380  6.103870
210  2 -0.8149 12.197700  3.323800 12.025500
211  2 -0.7734 12.252500  9.077690 -0.067606
212  2 -0.8068 12.179100  9.057440  6.124680
213  2 -0.7816 12.134000  9.156800 12.091000
214  2 -0.8058 12.229300 15.091500  0.013875
215  2 -0.7848 12.147100 15.152500  6.000850
216  2 -0.8112 11.976200 15.211100 12.366900

