Generated by pymatgen.io.lammps.data.LammpsData

504  atoms

  2  atom types

0.000000 17.774667  xlo xhi
0.000000 21.986255  ylo yhi
0.000000 41.650458  zlo zhi

Masses

1  208.9804
2   78.9600

Atoms

1    1  0.7276 13.668800 10.553000 12.118700
2    1  0.6630 17.216900  2.903080  9.345560
3    1  0.7337  8.152780  5.514410  9.849550
4    1  0.6212 13.594500 10.489700 15.405000
5    1 -0.0950  2.128600  9.934880  7.507340
6    1  0.4145  4.312480  0.678930 10.050500
7    1  0.5362  1.358470  1.208140  6.903430
8    1  0.3423 16.374600  8.114010 11.749100
9    1  0.5967  9.139860 10.619300  9.614640
10   1  0.5589  5.209930 16.297900 12.872000
11   1  0.7737 14.711700 13.387700  7.521340
12   1  0.5631 10.771400 18.458500 18.713200
13   1  0.1414  0.310371  4.977820 13.405900
14   1  0.7126  7.124580  2.328310 12.323300
15   1  0.0395  4.633510  9.890370 10.980700
16   1  0.3702  7.161940  7.832400 13.524400
17   1  0.6537 14.591800 20.734900  7.489460
18   1  0.4056  1.842020 19.594600  9.810820
19   1  0.8141 10.437000 18.240600 10.211800
20   1  0.2719  9.334240  7.877880 17.327400
21   1  0.3373  8.314500  4.664670 19.286200
22   1  0.3098  5.117340  5.323360 11.280900
23   1  0.5125  9.394760  7.667770  7.682200
24   1  0.6577 13.033900  0.773497 11.636600
25   1  0.3793  2.170360  9.833580 41.297700
26   1  0.6045  3.471670  0.721270  4.524340
27   1  0.2584  5.598360  9.128040  1.008700
28   1  0.1629  7.617970  3.666000  2.257820
29   1  0.2054  3.312010 10.835800  4.506340
30   1  0.5398  6.110010 21.255300  8.529860
31   1  0.8085  2.175610 21.337200  1.093010
32   1  0.0363  6.433590  6.341750 -0.101028
33   1  0.2178  7.481520  8.125570  5.106890
34   1  0.0956  8.011110 10.524800  6.785890
35   1  0.6084 13.516700 13.962900 39.587800
36   1  0.5995 14.806600 14.546300  1.434090
37   1  0.4414  2.951440 18.197400 38.456900
38   1  0.7932 10.071600 15.652900 40.790000
39   1  0.2672  8.380130 15.951700  5.701850
40   1  0.2537  0.585882 12.196700  7.611810
41   1  0.6071 13.724100 12.117800  0.633375
42   1  0.6721 17.003500 10.975500 39.983700
43   1  0.7244 11.300500 21.758700  1.912790
44   1  0.7538  7.473710 19.897900  1.267980
45   1  0.6851 15.760900  8.052260 41.120100
46   1  0.7904  0.290414 18.168000  2.671710
47   1  0.6248 14.468100 21.959900  3.046650
48   1  0.7874 17.499200  2.312170 41.353700
49   1  0.5011 16.144500 11.423900  9.962510
50   1  0.4271  7.249850 13.318500 15.835700
51   1  0.0544  5.293630 15.480300  6.596740
52   1  0.1055  2.057060  7.087260  7.586040
53   1  0.2922  6.175500 11.781000 13.318000
54   1  0.7481  3.099900  3.561910 41.145200
55   1  0.0922  4.586800  8.155130  5.877440
56   1  0.8993 11.803500  7.242660 10.876500
57   1  0.6976 11.900100  7.279160  6.272280
58   1  0.0324  5.730350 12.698600  5.902120
59   1  0.3149  7.964070 14.063500  3.241850
60   1  0.4889  6.876280 17.960200  7.779670
61   1  0.8170  8.789870  2.929460  6.805200
62   1  0.6524 17.636500 21.404800 11.369200
63   1  0.7013 14.786500  5.330890  4.572340
64   1  0.1211  3.234410  7.827000  3.024110
65   1  0.1237  3.009470 13.575600  6.858680
66   1  0.7980  2.505000 13.771400  0.997452
67   1  0.3764  3.625230 17.679300  5.522590
68   1  0.6197 13.811700 18.238000  4.057370
69   1  0.4529  1.842600 14.961000  4.163570
70   1  0.6630 14.134600  8.986810  3.565560
71   1  0.5917  7.942130  0.653497  3.428050
72   1  0.6186 17.488500 19.985900  7.609210
73   1  0.2421  5.246670  2.177430  1.998470
74   1  0.5347  5.578650 18.900100 14.347300
75   1  0.2346  2.395230  5.697410  5.341260
76   1  0.6588 11.142300 20.920000  5.334610
77   1  0.1981 -0.195407  5.683830 10.585600
78   1  0.0781  4.666060  8.047060  8.908710
79   1  0.3211  5.881800 12.454500  9.855940
80   1 -0.0364  5.194560 10.542000  7.691990
81   1  0.1582 -0.154417  7.188530  5.579770
82   1  0.2151  7.059910 11.015000  3.911170
83   1  0.6461 10.722900 10.168900 39.404400
84   1  0.7097  9.778740 11.385800  0.969536
85   1  0.6087 16.271200  2.239950  5.502770
86   1  0.1710  5.685460  6.280580  3.106230
87   1  0.5154  9.973840  6.165600  2.644890
88   1  0.2728 16.824600  7.139610  8.452940
89   1  0.8130 14.146700 16.719000 10.007600
90   1 -0.0459  2.154640  8.837220 10.477400
91   1  0.6566  1.143770 16.371300  8.586620
92   1  0.7353 12.873000  2.836350  8.063180
93   1  0.3119  0.022057 10.691000  4.962760
94   1  0.6302 11.332300 13.699300  4.890020
95   1  0.6813 16.471300 15.805200  5.041880
96   1  0.4891  1.139870  3.420640  3.534480
97   1  0.5919 17.917000 12.253800 24.367400
98   1  0.7638  6.072000 16.514700 23.609700
99   1  0.6218  3.722860  3.699890 26.897800
100  1  0.8755  4.518320  9.049900 23.044500
101  1  0.5190  3.975730 13.894100 29.466000
102  1  0.2922  3.574790 19.178600 19.783500
103  1  0.5375 14.288300 19.118100 27.120900
104  1  0.0910  6.839130  6.289420 16.883000
105  1  0.5222  6.671980  2.258690 28.246200
106  1  0.6840 11.626000  5.567840 23.562000
107  1  0.5637 15.167500  8.594590 25.267200
108  1  0.7364 10.236700  8.885090 26.381400
109  1  0.8849  5.980470 19.417300 25.464400
110  1  0.6659  7.863740  3.108930 22.395000
111  1  0.7409  8.575320  4.320650 26.095500
112  1  0.6282 14.163100 11.420100 23.605900
113  1  0.7860  3.806760 12.232800 24.946400
114  1  0.3365 16.985600 13.626000 30.572600
115  1  0.8023 12.766200 15.809100 25.762800
116  1  0.4707  8.659370 21.551300 27.509200
117  1  0.7971  1.088290  5.700100 28.416500
118  1  0.6803 16.018600  0.587226 25.183200
119  1  0.4516 13.856800 19.427700 21.623100
120  1  0.5845 14.015700  8.316990 22.135700
121  1  0.4702  4.114800 18.360200 11.119000
122  1  0.3146  3.040100 21.396500 14.652600
123  1  0.6233 17.462100  6.399210 19.508500
124  1 -0.0183  3.002940  5.473110 13.953500
125  1  0.5902  6.166200 18.298400 19.946600
126  1  0.7401 10.053900 19.032900 22.454400
127  1  0.6857 16.420600  0.426764 14.795400
128  1  0.6544 12.723600  7.498140 15.301500
129  1  0.0545  1.543590  7.360580 15.352200
130  1  0.5506 14.202300 10.829000 19.291300
131  1 -0.0736  0.377143 20.580800 19.413600
132  1  0.6395  9.922410  0.563213 10.452900
133  1  0.2014  2.112970  4.638590 11.311900
134  1  0.7808 11.220200  1.713300 14.951900
135  1  0.0461  4.435000  8.370980 15.566400
136  1  0.2703 13.990100 14.519000 17.241800
137  1  0.1560  0.347806 17.774400 19.135800
138  1  0.6783 14.333500 15.052700 13.331600
139  1  0.8186 10.737300 14.914200 22.167500
140  1  0.6278  9.809720 18.467500 14.223300
141  1  0.4710  9.889600 11.378400 14.524200
142  1  0.5005 16.834400 13.442400 18.024800
143  1  0.1573  1.346570  0.253492 16.873100
144  1  0.4418 -0.286311  5.342810 16.151800
145  1  0.5422  5.385180 15.057000 18.877400
146  1  0.2530  2.760350 10.019900 13.780300
147  1  0.0558  4.034730  5.655100 16.899100
148  1  0.2974  7.092000  9.267310 16.454200
149  1  0.6171  8.298830 19.043600 16.803800
150  1  0.2632  0.130868  1.519480 19.566900
151  1  0.3801  1.969910  2.454450 13.804300
152  1  0.6340 14.963800  3.849790 14.929100
153  1  0.7199  7.747110  6.760980 22.900800
154  1  0.6687  9.726300 11.957300 23.412600
155  1  0.7902 13.468600 18.719800 14.736300
156  1  0.7565  8.157070  0.323810 24.576600
157  1  0.5006  6.956490  1.408490 17.261000
158  1  0.6039  3.891190 13.280800 21.232900
159  1  0.0461  3.067650 22.394500 20.786100
160  1  0.7450 11.359200 13.143500 11.182200
161  1  0.1731  1.417280 19.298300 16.882500
162  1  0.6190  2.789150  0.688847 25.883700
163  1  0.3230 14.370100 17.727900 18.480700
164  1  0.7599 15.366600  3.958660 21.959400
165  1  0.6584 10.524000 11.312400 19.506000
166  1  0.6991  1.432410 16.542800 13.360800
167  1  0.6464  2.798180 13.225600 16.273700
168  1  0.4610  6.076220 21.210100 12.292200
169  1  0.5636  0.513193 15.325300 21.272500
170  1  0.7575  1.981720  4.999760 21.955100
171  1  0.5956  1.032590  9.666460 20.802600
172  1  0.4860 10.835700 15.034800 15.183100
173  1  0.7089 11.669600  2.863220 21.595700
174  1  0.1438  4.138050 22.062600 17.661200
175  1  0.4322  1.164520  1.312980 22.847000
176  1  0.8096 13.932600  4.121610 26.097700
177  1  0.6997  5.150350 10.438000 28.009700
178  1  0.5227  4.602730  0.846112 22.965700
179  1  0.2227 16.794900 18.692000 21.452600
180  1  0.3880  6.885260  8.288540 19.176800
181  1  0.6328  9.262750 16.836500 26.546000
182  1  0.5905  4.737030  3.912240  8.902450
183  1  0.3341  2.683550  7.501410 19.150100
184  1  0.4267 14.528800 14.245600 19.958100
185  1  0.4747  9.942690 14.622100 18.528000
186  1  0.2145  3.477330  2.932030 19.111400
187  1  0.3683 14.600100 21.868900 19.669900
188  1  0.5892 12.467500  4.561510 17.902500
189  1  0.5028  5.931580 11.725400 18.583800
190  1  0.3993  3.011740 10.572300 18.352000
191  1  0.1860  4.239710  2.485010 16.109600
192  1  0.4753 16.801700 17.800700 15.727000
193  1  0.5051 15.363300 11.518100 36.637600
194  1  0.1115  5.904850 16.431800  3.894820
195  1  0.6476 16.517600  4.913640 37.393200
196  1  0.6179  5.804100 15.006200  1.193600
197  1  0.3467  0.203151  8.633030  2.960360
198  1  0.6096 16.659600 16.347300 41.012600
199  1  0.8287  0.796436  1.378380 35.247400
200  1  0.4385 16.063100  9.195950 34.061000
201  1  0.3472 10.425200  3.796120  0.750182
202  1  0.3488  6.851390  9.186890 39.888900
203  1  0.6767 14.202900 22.258500 41.425600
204  1  0.6278 11.539600 17.474900  6.491270
205  1  0.3799  7.359830  6.051140 39.019200
206  1  0.6774 13.493800  3.993270 41.431500
207  1  0.5212 10.645700  9.985640  4.383920
208  1  0.4585 12.508000  8.915820 35.922300
209  1  0.7223 13.260100 18.453300 39.760000
210  1  0.5706  9.537590  0.941817 39.474000
211  1  0.2284  7.093870  3.203990 40.560300
212  1  0.7146  9.447630  5.418320 36.620700
213  1  0.7539 11.058100 16.162800 36.770100
214  1 -0.0018  0.060701 13.193300 34.798000
215  1  0.5665 10.960800 20.467500 37.590500
216  1  0.7253  0.917287  5.327060 33.174400
217  1  0.4989 16.244600 16.575500 29.702100
218  1  0.7723  0.963961 19.753800 26.048700
219  1  0.1164  1.965680 10.933100 35.380100
220  1  0.4901  5.652120  5.895710 29.321900
221  1  0.0065  2.867250 13.762100 34.879100
222  1  0.7438  5.804440 16.157100 27.888500
223  1  0.7731  5.599530 21.211500 38.281700
224  1  0.8085 17.597400  1.889580 30.225800
225  1  0.6168  9.133410  9.148570 36.009200
226  1  0.2072  8.834490 11.405600 32.256200
227  1  0.6681  8.184190 13.278200 26.341500
228  1  0.5161  6.325330 21.400400 33.373300
229  1  0.6323  5.923110 19.998600 30.558600
230  1  0.5629  9.020480  5.150750 31.403200
231  1  0.4991 11.887000  8.106590 30.577100
232  1  0.2919  8.244090 12.565300 29.561700
233  1  0.6211 14.361400 11.746000 28.395600
234  1  0.1723  2.206150 14.210900 32.132600
235  1  0.5541 11.480900 21.190400 26.088600
236  1  0.4201 14.735200  6.321680 34.752800
237  1  0.5079 11.250900  6.629110 20.210200
238  1  0.6167  0.339274 12.936900 27.484500
239  1  0.4663 10.626800 19.143100 28.881500
240  1  0.7308 13.753700  2.477040 29.761900
241  1  0.5679  4.896460 17.411200 34.766700
242  1  0.5834 13.579100  3.283270 37.412700
243  1  0.4408  5.827660 10.229700 36.596000
244  1  0.2956  1.510360 13.493500 37.647500
245  1  0.8346  8.502760 13.341400 36.370800
246  1  0.6319  6.786630 17.069300 38.126700
247  1  0.6111  8.545060 16.950200 30.914100
248  1  0.6733  2.522180 20.256800 35.856600
249  1  0.3019  4.058480  8.907570 34.425000
250  1  0.2925  9.085060  9.479830 29.792000
251  1  0.4834 11.899900  5.811000 34.010100
252  1  0.3433 13.415900 10.153900 32.931600
253  1  0.5269 10.747800  1.773760 36.785000
254  1  0.2125  6.278190  9.884890 33.112800
255  1  0.6962 11.999400  6.960280 39.304200
256  1  0.7447 15.920600  7.921120 29.834400
257  1  0.1626 15.044000 12.273900 33.856300
258  1  0.4919 13.833000  5.508480 31.660900
259  1  0.6590 13.762300 18.440400 35.336700
260  1  0.8515 13.138900  0.880994 32.616500
261  1  0.1482  0.275939 11.059100 32.440800
262  1  0.5444  3.335090  3.560390 30.341400
263  1  0.6724  3.378880  5.836640 36.195900
264  1  0.5751  7.446420  1.870920 35.333200
265  1  0.5467  2.274480  8.753780 31.040400
266  1 -0.0078  0.341077 16.629500 34.871000
267  1  0.7048  1.437420  8.932320 25.850100
268  1  0.8403  6.161970 12.766200 39.405100
269  1  0.7891 10.395200 18.195500  1.849690
270  1  0.2191  3.866310 15.785200 37.192700
271  1  0.8187  2.129990 21.510300 29.561700
272  1  0.6013  4.098350  3.350070 33.680000
273  1  0.3597 12.447100 11.760300 35.096600
274  1  0.6897 11.063500 14.552400 30.480000
275  1  0.3500 15.685800 16.709600 33.014300
276  1  0.4149  1.088220 17.786700 32.163000
277  1  0.3517  6.253840 14.686500 31.348100
278  1  0.6201 -0.518492 19.552600 38.681900
279  1  0.6328 10.038900  0.707709 30.408000
280  1  0.1718  4.608540  7.528240 39.482200
281  1  0.1939  0.361687 16.250000 37.977200
282  1  0.8037 16.507800 20.887100 32.927400
283  1  0.6325  8.071200 19.516200 35.404900
284  1  0.2660  1.667880 19.847700 21.796100
285  1  0.0498  3.168990 10.898500 32.754900
286  1  0.4039  2.130790  6.775290 40.461500
287  1  0.6567 15.529500 21.237500 28.472900
288  1  0.0467  5.811810 11.936300 31.101600
289  2 -0.7216 16.168800 13.690200 37.915500
290  2 -0.7602 15.749700  4.438760  6.974350
291  2 -0.9316  2.610250  5.330340  1.306360
292  2 -0.3817 11.490300 15.113200 34.313800
293  2 -0.5063  7.681660 16.804400 41.400500
294  2 -0.8121  2.049060  1.763210  0.900432
295  2 -0.7075  4.673280  4.326480 38.844200
296  2 -0.7253 16.141900  6.804010  2.487080
297  2 -0.6898  0.753585 15.748700  1.497960
298  2 -0.8120 10.132900 16.253000  3.857560
299  2 -0.8601  4.536730 12.915400  3.120350
300  2 -0.7676 12.875100 19.954200  1.845380
301  2 -0.5146  4.903280 18.450600 40.110000
302  2 -0.8439  9.644340  7.628460 38.216300
303  2 -0.6016 15.764300  4.978060 40.511900
304  2 -0.6166  6.981280 11.685600  0.582475
305  2 -0.6880 13.633000 16.597500  0.045707
306  2 -0.5943 10.666200 18.750300 35.225000
307  2 -0.6341 14.140400 20.354500 38.031500
308  2 -0.6309 13.948200  8.694800  6.231640
309  2 -0.6281 11.033600 13.209900 37.614900
310  2 -0.5797 12.215300  9.747970  0.056491
311  2 -0.4718  9.996180 19.784300 41.579800
312  2 -0.6229 14.578400  8.704600 37.502600
313  2 -0.7404  0.793312 17.604000  5.704650
314  2 -0.7213 15.921300  0.153413  9.110460
315  2 -0.5735  0.121153 13.598200 40.856400
316  2 -0.7233  0.307606  0.959434  4.132790
317  2 -0.6322  8.601190 14.803200 38.565000
318  2 -0.6465 14.642200  2.810990  1.909900
319  2 -0.8373 11.741900  1.006340 41.342700
320  2 -0.6914  8.780440  5.118280  4.847550
321  2 -0.8405  9.281130  8.934490  2.106980
322  2 -0.6734 10.469900 14.115400  1.253020
323  2 -0.5119 15.965800 18.714900  0.992192
324  2 -0.4332  2.022620 19.901400  3.827560
325  2 -0.4802  8.759360 22.028300  6.941440
326  2 -0.6537  5.202280 20.998800  3.126010
327  2 -0.5369 12.594300  6.576380  0.991683
328  2 -0.6684 12.239400 11.729600  3.322870
329  2 -0.7025 13.843100 16.264200 37.318600
330  2 -0.8421  1.743160  4.409370  8.184460
331  2 -0.4978 12.292800  4.685950  5.053600
332  2 -0.4743 10.043400  2.745950 12.067200
333  2 -0.7412 10.725100  9.817920  7.508560
334  2 -0.5664 11.653500 15.115600  8.812680
335  2 -0.8103  9.176090 20.386300  3.440950
336  2 -0.5676  0.868910  7.225980 35.642100
337  2 -0.6868  5.999320  5.607540  7.110460
338  2 -0.9248  4.486090  2.015060 12.872100
339  2 -0.6179 11.093200 10.185600 11.548300
340  2 -0.5178 15.599100 12.513600  5.004930
341  2 -0.5870  5.600670  2.107520  7.010850
342  2 -0.6195 12.282700 21.065800  9.197000
343  2 -0.7995  1.582760  1.255520 10.008100
344  2 -1.0364  4.623250 11.407400 15.759300
345  2 -0.6797 16.486700  2.110790 12.671400
346  2 -0.6600 15.408100 17.399100 13.694100
347  2 -0.6229  0.739681 12.724200  3.146860
348  2 -0.6906 16.816400 14.773200  7.880050
349  2 -0.6121  9.384880 20.292300 12.167700
350  2 -0.6804  7.056590 -0.055539 41.081600
351  2 -0.5829 11.374000  5.244170  8.194010
352  2 -0.6736  9.816740 18.944600  7.503250
353  2 -0.6112 13.848900 15.420300  4.102380
354  2 -0.4184  0.147788 14.070700 14.181400
355  2 -0.4949 14.012800  8.701000  9.496950
356  2 -0.6048 13.840300  6.551830 12.607500
357  2 -0.5313  8.700580 13.919000 10.416300
358  2 -0.8929 12.462600 12.762200 13.569300
359  2 -0.6589 16.125800 20.158800  5.132820
360  2 -0.6110  7.425930  5.054860 12.365000
361  2 -0.6513  8.104400 13.656700 20.950800
362  2 -0.6302  7.772240 20.891900 14.749800
363  2 -0.7038 16.167200 10.446500 13.057200
364  2 -0.4759  1.658420 14.613800 10.568800
365  2 -0.8571 11.984500 10.928300 17.176200
366  2 -0.7794 11.229000  9.222530 21.222200
367  2 -0.6743  4.976990 15.306800 10.390500
368  2 -0.5836  3.492580 16.181200 15.877600
369  2 -0.6616 14.604100  6.995490 16.950900
370  2 -0.4792 10.097600  7.471530 13.734000
371  2 -0.4460 13.202600 11.636800  9.103530
372  2 -0.5731 12.704900 18.471200 11.317200
373  2 -0.6973  3.135740 20.246800  6.897920
374  2 -0.5547 10.340700  1.734740  4.310430
375  2 -0.4950  9.406760  1.944610 19.375600
376  2 -0.7958  8.640950  8.143870 10.341800
377  2 -0.6867 14.189000 17.146700  7.090820
378  2 -0.5640 15.098700 14.502600 10.952800
379  2 -0.4904 13.486400  3.512260 10.942300
380  2 -0.6071 16.302200 10.346600 17.402800
381  2 -0.7626 13.825700  5.954720 20.978800
382  2 -0.7115 16.274800 10.797900 21.793400
383  2 -0.5853 17.613700 17.953200 10.341600
384  2 -0.7970 15.114500 19.948400 16.688800
385  2 -0.5686 11.267000 20.534800 15.594500
386  2 -0.5919  6.501470 21.518700 20.376400
387  2 -0.9621  9.560300  4.986440 21.425900
388  2 -0.5048 11.711600  4.692290 15.155600
389  2 -0.6668 13.127600 13.252400 22.081300
390  2 -0.7888  6.609170 19.228400 10.255600
391  2 -0.9685  2.821160 19.184700 13.042700
392  2 -0.5668  0.535252  7.429990 22.476900
393  2 -0.6804  0.724852 12.603100 20.176800
394  2 -0.6718  8.836380 16.638700 23.437100
395  2 -0.5086  4.634180 17.396400 25.997300
396  2 -0.5152 15.204100 20.759000 12.950000
397  2 -0.8240  7.477250 16.112200 17.340900
398  2 -0.7224  7.952010  2.822300  9.468800
399  2 -0.5090  7.378410  9.490140 22.006400
400  2 -0.7655  1.152530 15.273700 18.243800
401  2 -0.8707  8.425960 11.067500 17.414800
402  2 -0.4446 16.148300 17.375600 25.718900
403  2 -0.7519 -0.161025  2.565150 16.265500
404  2 -0.4888 10.768900 20.754000 20.372900
405  2 -0.5813  9.036350 16.009200 12.760400
406  2 -0.9441 12.152100 16.706800 16.513300
407  2 -0.5088  8.519750  3.180920 15.522300
408  2 -0.5426 15.581300  3.696980 19.248100
409  2 -0.6982  3.846980 16.040400 21.312100
410  2 -0.5121  2.243470 14.418200 25.301900
411  2 -0.6658 11.905600 10.545000 25.311900
412  2 -0.8539  4.763910  9.279130 20.076300
413  2 -0.8099  2.141300 10.825400 23.299500
414  2 -0.4507 10.311600  0.243874 22.960600
415  2 -0.6775 13.717800  2.667660 23.525400
416  2 -0.8739  1.449280  4.503180 18.840700
417  2 -0.6106  4.284960  6.634260 21.860900
418  2 -0.5856 11.450500 13.109200 28.256300
419  2 -0.6188 12.738300 18.786100 24.054800
420  2 -0.6528  6.248930  2.866640 24.720500
421  2 -0.7353  5.574980 19.315700 17.119600
422  2 -0.6810 13.160700 21.416000 29.470300
423  2 -0.5656 10.124000  3.227160 23.963400
424  2 -0.4567 14.941300 16.408100 22.430800
425  2 -0.6811 12.799400 17.160500 28.261800
426  2 -0.6472  3.598490 20.310800 24.249100
427  2 -0.8029  6.306940 22.249300 26.485600
428  2 -0.7791  3.314740  5.643040 32.046900
429  2 -0.5419 13.439600  2.180450 16.735500
430  2 -0.5901 14.990300  6.100620 24.000400
431  2 -0.6219 10.769000 14.381100 24.599800
432  2 -0.9331  0.038122 21.032400 23.720200
433  2 -0.5872  3.332840  8.056350 28.541600
434  2 -0.7376  4.249740  0.833730 29.547700
435  2 -0.6332  5.695340 13.291600 23.546600
436  2 -0.5710  4.467440  9.672760 25.726900
437  2 -0.3797  3.204070 19.086500 29.082700
438  2 -0.5470 14.512300 19.375100 32.276700
439  2 -0.6433  3.446900  3.275590 23.511300
440  2 -0.7202  1.637100  2.878830 28.380800
441  2 -0.6990  7.244260  2.048470 31.163900
442  2 -0.5363  6.051780  6.265100 26.823200
443  2 -0.7936  7.037850 18.531300 28.153500
444  2 -0.7985 12.034400 16.175300 20.377300
445  2 -0.6131  3.307290  0.696389 35.277000
446  2 -0.6380 10.069400  2.587510 27.506400
447  2 -0.6964  9.521240  6.557530 24.982000
448  2 -0.9592 14.310300  7.895950 32.230000
449  2 -0.4767 -0.083530  3.817770 23.800200
450  2 -0.5152 14.121100  0.738609 35.080700
451  2 -0.5832  6.442390 19.153700 22.835100
452  2 -0.6095 13.411200  8.572840 28.174800
453  2 -0.6841 -0.191112  4.638150 30.508900
454  2 -0.4634 16.169000  6.533870 27.073200
455  2 -0.7093 -0.522531 19.832800 30.174600
456  2 -0.5455 15.959400  2.243510 28.060100
457  2 -0.6857 17.285700  9.838210 28.102600
458  2 -0.4620 10.505700 19.383500 31.620400
459  2 -0.6320  7.258480 17.405800 34.040700
460  2 -0.8539  5.886400 13.245400 27.435300
461  2 -0.5655  4.194790 19.745900 33.090000
462  2 -0.5921  4.148590 16.721100 31.793800
463  2 -0.7823  2.137250 11.591900 29.459800
464  2 -0.7528  0.192105 21.901200 27.138800
465  2 -0.8379 12.416800  5.648870 36.788100
466  2 -0.4021  6.955630  4.509140 34.527200
467  2 -0.9092  8.731650 15.478100 28.641300
468  2 -0.6161  8.655440 14.220300 33.347100
469  2 -0.6022 13.328000  0.942271 26.596700
470  2 -0.6258  1.296100  4.106880 35.778000
471  2 -0.5346 11.598500  5.816940 28.424500
472  2 -0.7025  7.753420 10.037800 27.373000
473  2 -0.7977  8.884960 19.686500 25.431400
474  2 -0.6676 15.673300 13.139700 26.287600
475  2 -0.8959  8.085730 21.890000 37.307800
476  2 -0.7516 15.625200  1.939340 31.932500
477  2 -0.6968 17.406600  7.750260 32.605700
478  2 -0.3948  2.213320  6.093640 25.970100
479  2 -0.6097  1.424610 15.381600 29.316000
480  2 -0.7849 14.353300 14.004300 31.585200
481  2 -0.6550 13.849500 11.298400 39.210600
482  2 -0.8201  5.911420 12.872000 36.547300
483  2 -0.5694  6.189490  7.242200 33.019100
484  2 -0.7179  4.020980 11.504200 40.331600
485  2 -0.5726  5.036300 14.983100 40.310600
486  2 -0.7476 -0.232304 20.605900 35.089600
487  2 -0.4744 17.097600 21.309000 41.065900
488  2 -0.5145 15.959900  2.153050 38.237700
489  2 -0.5981 -0.111553  8.743860 38.342000
490  2 -0.7592  8.279660 11.093200 37.872600
491  2 -0.6265 10.584800 17.891000 39.749200
492  2 -0.6729 13.434900  1.074400  5.550340
493  2 -0.9076  5.029000 19.505800 36.466900
494  2 -0.6234  6.534850  6.951350 36.530700
495  2 -0.6964 11.614100  2.770750 31.253200
496  2 -0.6588 16.506600 10.523300  1.101300
497  2 -0.4090  1.412740  3.320190 39.247600
498  2 -0.5905  1.352720 18.775100 40.724300
499  2 -0.4224  1.480590 21.555400 38.106100
500  2 -0.8300 10.983000  3.665910 38.911900
501  2 -0.4878 10.655300  0.390967 33.571000
502  2 -0.9644 10.896900  8.956610 33.520600
503  2 -0.6281  1.204000  0.650830 32.226400
504  2 -0.5496 10.095500  3.530010 34.142000

