Generated by pymatgen.io.lammps.data.LammpsData

504  atoms

  2  atom types

0.000000 17.774667  xlo xhi
0.000000 21.986255  ylo yhi
0.000000 41.650458  zlo zhi

Masses

1  208.9804
2   78.9600

Atoms

1    1  0.4310 14.621000 11.309700 13.536200
2    1  0.6311  0.573845  0.782574  7.481210
3    1  0.7914 10.044900  5.431090  9.948560
4    1  0.4228 14.732900 10.488400 16.282800
5    1 -0.0671  2.449470 10.206800  7.824400
6    1  0.4296  1.388330 20.016000 13.900500
7    1  0.2889  3.557790 20.792000  8.084980
8    1  0.0265  0.600495  8.103380 11.970800
9    1  0.7896 10.765800 10.836300  8.828210
10   1  0.2741  5.715890 14.783000 11.555700
11   1  0.5475 14.093500 12.248800  6.269790
12   1  0.2424 10.958800 18.800800 19.229400
13   1  0.3866 15.550700  6.071680 13.128900
14   1  0.4773  5.487270  3.403670 12.521300
15   1  0.2245  5.446150 10.268000 11.353200
16   1  0.6729  8.929590  9.403680 11.830400
17   1  0.6271 12.023500 20.851700  8.211350
18   1  0.1050  3.585710 18.819400 10.524600
19   1  0.6119  9.591470 18.378900 11.170500
20   1  0.6989 10.946800  8.071080 16.064300
21   1  0.4934  7.378630  4.249970 17.593400
22   1  0.0030  2.740380  4.978420 12.846400
23   1  0.3890  7.637300  8.522660  7.581950
24   1  0.7615 13.457500  1.231310 11.826800
25   1  0.4677  2.674790 10.420500 41.539600
26   1  0.7066  3.164440 21.194000  4.073190
27   1  0.2779  3.691290  4.647860  0.249145
28   1  0.0229  6.270830  3.957500  0.793045
29   1  0.1305  3.060840 10.625900  4.758960
30   1  0.5939  8.041220 21.526200  9.096600
31   1  0.7443  2.950700 20.030400  0.313811
32   1  0.3169  6.253290  6.292060 40.653200
33   1  0.6290  8.891530  5.769130  5.172850
34   1 -0.0330  5.401730  9.846510  6.812320
35   1  0.8221 14.523500 14.056800 38.734200
36   1  0.6239  1.217970 13.403200  2.821600
37   1  0.3906  3.059940 17.852500 38.638700
38   1  0.4859 10.159500 15.171900  2.543880
39   1  0.7306  9.122970 16.173100  8.007350
40   1  0.3769 16.576400 10.161700  6.397870
41   1  0.6556 15.703900 11.838000  2.213510
42   1  0.5580 17.438200 10.714200 40.198700
43   1  0.6101 10.994500  0.397656  2.786830
44   1  0.7255  6.612650 20.903900 41.626600
45   1  0.7331 15.911700  6.679640  0.526236
46   1  0.7772 17.237300 19.244500  3.528260
47   1  0.6163 14.405200 20.855900  2.053930
48   1  0.5833 15.589800  1.863950  0.613918
49   1  0.3153  0.842398 12.625200  7.290670
50   1  0.4555  9.635980 11.689300 16.848300
51   1  0.6323  6.871530 15.919300  5.221030
52   1  0.0536  1.006800  7.340230  8.185190
53   1  0.5599  8.701200 12.942700 12.348500
54   1  0.7746  1.404730  2.270880 39.164700
55   1 -0.0258  3.871570  7.934810  5.706730
56   1  0.7926 12.056400  8.124270 11.218100
57   1  0.8419 12.609200  7.847210  7.288060
58   1  0.1518  6.952760 12.225400  6.620570
59   1  0.1950  8.219700 13.188700  4.301240
60   1  0.6305  6.707170 19.904900  6.234840
61   1  0.6651 10.305400  2.148870  5.206760
62   1  0.7505 17.069100 21.212200 11.232300
63   1  0.7060 14.918300  5.406670  4.539400
64   1  0.4021  5.115850  8.267410  1.498880
65   1  0.1130  3.764680 13.294400  6.527690
66   1  0.7004  4.086520 15.751000  0.953364
67   1  0.1717  3.253620 17.997400  8.142390
68   1  0.6607 14.666000 19.118900  6.438460
69   1  0.6144  1.712940 16.469200  5.297190
70   1  0.6008 15.796100  8.751420  3.562300
71   1  0.5159  7.089570  0.519839  3.247500
72   1  0.3914  0.426320 19.464600  7.982920
73   1  0.2774  4.388880  2.672950  2.763460
74   1  0.3040  5.518730 16.376500 14.046600
75   1  0.2939  3.396280  5.475890  7.376090
76   1  0.6526 10.855600 18.438200  5.596180
77   1  0.5317 15.756600  6.311690  9.789550
78   1  0.3133  5.266360  7.353590  8.712070
79   1  0.1670  5.923660 13.005200 14.259200
80   1  0.1670  4.867880 12.246500  9.315800
81   1  0.2059  2.085100  6.446990  3.534020
82   1  0.2606  5.306350 13.234600  3.966680
83   1  0.7125  9.680640 11.299300 40.214400
84   1  0.5499 12.550600  9.961630 41.203800
85   1  0.7260 16.496200  2.461030  4.361550
86   1  0.1240  4.949760  5.884900  3.545680
87   1  0.5559 11.949400  7.063810  3.500870
88   1  0.2624 -0.049918 10.031800  9.278940
89   1  0.7936 15.214600 18.196300 12.986800
90   1  0.0278  2.911980  6.653460 10.472500
91   1  0.2945  2.922830 15.964800 10.333900
92   1  0.7509 13.669800  2.506860  7.483170
93   1  0.0890  0.832500  8.535340  5.343370
94   1  0.5500 12.182400 12.386900  3.192290
95   1  0.7376 15.770500 15.153700  5.607730
96   1  0.4385  2.256250  3.602790  4.839360
97   1  0.6073 15.060500 14.731900 22.752600
98   1  0.6098  5.987320 16.247200 20.969600
99   1  0.7070  2.744600  5.472760 25.983600
100  1  0.8464  5.108380  9.743550 23.130500
101  1  0.4500  4.745540 14.968900 32.420000
102  1  0.2067  5.024580 18.840500 19.416900
103  1  0.6192 15.966600 19.403600 24.323700
104  1  0.2982  6.561720  7.557240 15.976400
105  1  0.5974  6.004250  1.863820 27.693900
106  1  0.6244 13.224800  5.296070 26.558100
107  1  0.7486 15.477500  9.207340 27.283300
108  1  0.7362  7.474270  9.713360 26.606300
109  1  0.7206  5.633880 19.476200 24.253800
110  1  0.7683  6.282170  5.067220 22.766400
111  1  0.7468  9.041970  4.543200 27.414400
112  1  0.4007 14.720100 13.156200 26.706900
113  1  0.7626  5.731590 13.280100 25.005100
114  1  0.4257 13.847800 12.450600 29.722300
115  1  0.4992 13.776000 16.579700 26.327400
116  1  0.7394  8.804520 20.500100 30.501200
117  1  0.6252  1.452370  6.873810 30.528000
118  1  0.4295 14.381700  0.242428 22.828700
119  1  0.6900 10.295300 19.484300 22.363200
120  1  0.8559 12.880400  8.629230 23.739000
121  1  0.2435  6.537820 18.057000 11.058800
122  1  0.3783  3.247170  0.670408 12.888400
123  1  0.6072 17.108100  8.107780 20.201300
124  1  0.0558  4.774670  5.336500 15.183400
125  1  0.2127  8.106050 19.825800 17.746100
126  1  0.4541  6.997780 20.357200 20.612800
127  1  0.6611 15.823800  1.815490 17.259900
128  1  0.4608 15.068800  7.863550 17.200300
129  1  0.2443 17.056400  8.068630 14.857700
130  1  0.5558 13.640800 10.883000 19.881600
131  1  0.1893  0.312494 20.038500 20.441800
132  1  0.6961  8.539790  0.718504 12.344500
133  1  0.1850  0.341855  5.026120 11.561700
134  1  0.7331 11.704000  2.438090 15.745400
135  1  0.0370  2.457280  7.936920 15.409600
136  1  0.2275 13.311800 13.364800 15.695700
137  1  0.4228  0.963975 19.545400 16.746700
138  1  0.7733 16.168800 13.552600 10.720100
139  1  0.8283  9.299430 15.583100 21.837000
140  1  0.3773 11.680100 15.819400 15.851700
141  1  0.4843 11.795700 11.646500 14.286400
142  1  0.4706 15.686300 12.601200 20.054800
143  1  0.0569  2.464800  4.208890 17.218800
144  1  0.3529  0.874498  6.247630 18.380300
145  1  0.3550  6.468340 17.135200 17.197500
146  1  0.1862  1.999290  9.988740 13.476500
147  1  0.0817  3.746980  6.821620 17.693000
148  1  0.1662  6.683200 10.904700 17.001500
149  1  0.5484  7.717920 19.766200 14.831400
150  1  0.3367 16.272100  0.641663 20.611200
151  1  0.3266  0.915746  2.707840 13.764800
152  1  0.6814 12.183700  5.693840 13.877900
153  1  0.7183  9.138290  6.732870 24.150200
154  1  0.7443 10.372000 11.558800 24.303000
155  1  0.6965 11.932000 19.576500 14.638300
156  1  0.8046  8.254340  0.916555 24.753800
157  1  0.6188  7.857990  1.093580 17.018200
158  1  0.6282  3.831710 13.408600 19.898800
159  1  0.0732  2.590820 21.494200 18.894500
160  1  0.8318 11.293900 13.661700  9.833900
161  1  0.2371  0.924263  1.817790 16.300300
162  1  0.6119  3.077160 21.888500 26.725900
163  1  0.5684 14.194700 18.507100 18.962800
164  1  0.7068 15.091800  5.383730 22.003000
165  1  0.4802  9.362250 10.846700 19.419600
166  1  0.6743  0.887353 16.280000 13.183600
167  1  0.6230  0.598909 12.286000 16.661400
168  1  0.3788  5.041530 19.945400 13.105600
169  1  0.7841  1.644410 14.716000 23.530000
170  1  0.7488  2.135860  7.222460 22.175400
171  1  0.6790  0.243325 11.163100 22.021100
172  1  0.3283 11.647000 13.311300 18.476700
173  1  0.7285  8.889740  2.726650 21.856300
174  1  0.2615  3.290450 21.555400 16.382300
175  1  0.3149  1.621260 21.321100 22.802800
176  1  0.5244 15.451800  2.238970 26.416900
177  1  0.6015  4.496930 10.698800 28.396300
178  1  0.6668  4.554310  1.887190 23.792900
179  1  0.4732  0.284174 17.320400 21.189500
180  1  0.6112  8.181170  8.348980 20.654400
181  1  0.7322  8.721410 17.392200 25.336100
182  1  0.7661  5.686410  2.271340  8.100430
183  1  0.1327  3.942500  9.475050 17.286500
184  1  0.3636 14.171900 14.815200 17.707000
185  1  0.2999  8.970210 16.968300 18.477200
186  1  0.3124  3.765520  4.228010 19.390500
187  1  0.4782 12.685800 21.520200 19.026800
188  1  0.6851 13.768400  4.466720 18.760900
189  1  0.2515  3.925550 12.442600 16.027100
190  1  0.0474  5.085040  9.831960 14.528900
191  1  0.0469  3.589130  2.553100 15.301300
192  1  0.6523 -0.235289 15.121900 17.188800
193  1  0.2935 15.802700 11.950100 36.379800
194  1  0.9003  6.791870 18.058100  2.399020
195  1  0.7368 17.170000  5.305310 37.736700
196  1  0.8933  7.167580 15.738800 40.906100
197  1  0.4220  0.778915  9.796800  2.057860
198  1  0.8056 16.807800 16.185300 42.113400
199  1  0.7332  0.341411  0.360555 35.712700
200  1  0.3760 16.275200  8.929260 35.386000
201  1  0.3616  8.648070  5.199950  1.662170
202  1  0.5951  7.064380 11.935400  1.373260
203  1  0.4306 12.717700 19.894600 41.347600
204  1  0.4710 11.727700 15.203500  5.480440
205  1  0.5588 10.372400  6.269790 39.027200
206  1  0.6958 11.990700  4.832250  0.299304
207  1  0.4162  8.732430  9.927710  5.025810
208  1  0.5531 12.242900 10.935200 37.962200
209  1  0.5206 13.512500 16.904400 40.082200
210  1  0.3822  8.969930  1.703590  0.204486
211  1  0.4057  7.720030  4.022900 39.619900
212  1  0.6222  8.023320  7.910270 34.266500
213  1  0.4256 10.988300 17.406000 37.404600
214  1 -0.0160  0.829118 11.998400 34.374100
215  1  0.5770 10.030000 20.159300 38.529000
216  1  0.6167 -0.384931  3.781040 34.107700
217  1  0.4331 16.908000 16.711500 29.272500
218  1  0.5271  0.408629 17.844600 26.728300
219  1  0.1095  2.245290 10.132000 36.205000
220  1  0.5514  5.108680  7.196710 30.383700
221  1  0.2357  2.935180 12.820600 36.499100
222  1  0.5701  6.250920 16.995500 28.180100
223  1  0.7109  4.348560 21.990500 38.263000
224  1  0.4450 16.659900  2.526630 29.138700
225  1  0.7404  7.924130  8.934670 37.953000
226  1  0.4603  9.761160 14.477900 32.474700
227  1  0.6264  8.847020 14.104800 26.288000
228  1  0.7179  4.803450 20.608400 32.573700
229  1  0.6504  5.346760 20.657700 28.623200
230  1  0.5372  8.247630  6.908670 30.293300
231  1  0.4183 10.672900  9.217550 34.064600
232  1  0.5094  9.350050 12.756500 29.844300
233  1  0.6041 12.450000 10.867400 28.190600
234  1  0.3981  1.253180 13.565700 31.469100
235  1  0.7903 11.209400 20.083000 26.034200
236  1  0.7980 13.232800  5.504310 35.168600
237  1  0.7125 11.261200  6.782420 20.357300
238  1  0.6257  0.113763 14.101200 27.385600
239  1  0.6595 13.332500 17.294400 29.717300
240  1  0.7090 11.881900  2.171120 28.444700
241  1  0.5243  6.658570 16.492100 35.644200
242  1  0.7313 13.817300  1.906440 39.647300
243  1  0.7259  7.254100 12.840100 37.359000
244  1  0.4795  3.206930 13.845500 39.396700
245  1  0.3920  8.743540 11.437000 33.955000
246  1  0.6766  6.393430 18.296100 37.808900
247  1  0.4088  8.514910 16.566900 30.509900
248  1  0.4415  2.855920 17.573300 34.578500
249  1  0.1984  2.001500  7.678510 35.463400
250  1  0.4990 11.452800  8.149110 29.812700
251  1  0.5965 11.303100  6.366090 31.926700
252  1  0.3109 13.634400 10.761800 34.169200
253  1  0.6566 10.877800  1.915370 36.946500
254  1  0.3333  7.636040  9.919650 32.012700
255  1  0.5736 13.560200  7.796090 39.268100
256  1  0.8005 15.031100  6.725420 31.031500
257  1  0.2384 14.855000 13.110200 33.734100
258  1  0.6742 14.927400  3.297240 32.048700
259  1  0.5484 13.614100 18.032300 35.028400
260  1  0.7906 12.452800 20.795700 31.712300
261  1  0.2856 16.658100 11.317200 31.950300
262  1  0.4840  3.643940  3.991760 28.852700
263  1  0.4045  2.572130  5.293670 36.538100
264  1  0.6073  5.387710  3.496450 36.994100
265  1  0.3862  1.688580 10.989200 30.218500
266  1  0.2901  0.926141 15.328800 35.235400
267  1  0.7811  1.760670  8.694620 26.606700
268  1  0.6613  8.971240 14.942000 37.394400
269  1  0.5012 11.389600 18.401200  1.957860
270  1  0.2806  3.803830 15.663300 36.809500
271  1  0.5810  0.857213  0.986128 30.097400
272  1  0.5757  2.827390  2.816910 33.477300
273  1  0.4117 11.552400 12.895400 35.399800
274  1  0.3665 11.699200 14.311700 28.112500
275  1  0.5639 15.862800 16.214400 32.672900
276  1  0.7359  2.244970 17.451100 30.329700
277  1  0.4152  6.722540 17.816100 32.013800
278  1  0.6850 17.362200 20.249300 41.027000
279  1  0.8743  7.721060  2.486030 33.107400
280  1  0.2876  3.083790  7.878320 38.248500
281  1  0.5029 17.239400 16.550900 38.279700
282  1  0.7692 16.671800 21.307500 32.472900
283  1  0.7105  8.480860 21.067700 35.275500
284  1  0.2385  2.822210 18.699200 21.618400
285  1  0.1979  2.435110  9.915990 32.696600
286  1  0.5516  0.405244  4.336420  0.971578
287  1  0.6267 15.794000 21.439000 27.810900
288  1  0.3307  6.758780 12.865500 32.672900
289  2 -0.8548 17.507900 13.131300 38.162500
290  2 -0.5692 15.899100  4.097180  6.898760
291  2 -0.8277  2.352150  7.342650  0.506656
292  2 -0.7082 13.194900 15.300600 32.328500
293  2 -0.5733  8.607550 18.982100  0.492501
294  2 -0.5792  1.586160  1.700210  0.721608
295  2 -0.3579  8.143840  4.199860 35.351000
296  2 -0.9107 16.897400  6.392690  2.734680
297  2 -0.5588  0.215947 15.881400  3.145170
298  2 -0.8774  9.187450 16.701400  4.292600
299  2 -0.8049  6.787700 15.636300  2.219720
300  2 -0.8016 12.590000 20.278000  4.046430
301  2 -0.7012  5.488460 18.017900 40.213500
302  2 -0.5771  6.960500 10.658200 39.651800
303  2 -0.6616 13.924100  5.082650 39.515100
304  2 -0.5926  9.543670 10.576000  1.440970
305  2 -0.5021 14.996300 14.473200 41.219500
306  2 -0.6991  9.069750 18.000400 34.513400
307  2 -0.6401 15.313900 19.837400 38.959000
308  2 -0.7074 15.371900  7.548310  6.534870
309  2 -0.6279 11.772800 14.100600 38.491600
310  2 -0.7376  9.240790  7.407880 41.167600
311  2 -0.6537  7.752170 20.372600 38.840100
312  2 -0.6481 16.068300  7.679990 38.811600
313  2 -0.7480 -0.488518 17.874700  6.138550
314  2 -0.4883 14.681500 19.995200 10.729400
315  2 -0.6517  1.599260 14.304600 41.379200
316  2 -0.6798  1.128260  1.113800  4.645570
317  2 -0.5514  9.027190 13.890100 40.789600
318  2 -0.6881 12.393800  0.530686  0.508869
319  2 -0.8155 10.409700  3.806950 40.131100
320  2 -0.6706  7.515610  3.294030  4.856460
321  2 -0.7174  8.171250  8.037050  3.225040
322  2 -0.4410 13.108200 12.482700  0.523813
323  2 -0.7163 15.220500 17.896200  2.052730
324  2 -0.5695  1.969630 18.817000  2.884100
325  2 -0.5516  8.117380  0.547527  6.839420
326  2 -0.6994  5.271710 20.011500  2.144910
327  2 -0.7296 13.888700  5.140990  1.977550
328  2 -0.7343 13.620000 10.019400  3.459190
329  2 -0.7898 14.344800 15.623100 36.585300
330  2 -0.6640  2.546960  3.072940  7.499810
331  2 -0.5678 12.395800  4.838250  6.765500
332  2 -0.4945 11.002200  2.743280 12.649300
333  2 -0.6985 11.576000 10.091800  6.251790
334  2 -0.8181 10.328100 13.552800  7.048340
335  2 -0.6605  8.527700 20.268500  3.752120
336  2 -0.7025 15.814000  5.760030 35.699000
337  2 -0.6480  7.112270  6.042680  7.411800
338  2 -0.8291  5.112160 -0.116240 10.688900
339  2 -0.6196 11.690900 10.925300 11.559100
340  2 -0.9681 17.143400 12.463600  4.889970
341  2 -0.6795  4.764720  0.684009  5.502550
342  2 -0.5391 10.964500  1.179760  8.841190
343  2 -0.6431  1.455070  1.411030 10.712600
344  2 -0.8245  9.273720 10.017300 14.289800
345  2 -0.5779 15.307400  1.471900 10.005200
346  2 -0.6409 16.210000 15.483400 13.668700
347  2 -0.9274  3.387870 11.519000  2.394580
348  2 -0.5074 -0.298229 15.366700  8.519550
349  2 -0.7765  9.638840 17.777000 14.598900
350  2 -0.7054  4.536420  0.514338 41.300300
351  2 -0.3469  9.592460  3.984940  7.351210
352  2 -0.5550 12.716600 18.165500  8.010010
353  2 -0.5902 14.488700 14.858300  3.237410
354  2 -1.0422 15.517700 12.571700 17.346000
355  2 -0.4569 13.834000  8.866420  9.337500
356  2 -0.8646 13.622900  8.205610 13.458000
357  2 -0.7662  8.251440 12.612600  9.690250
358  2 -0.5685 11.582600 14.035500 12.527900
359  2 -0.6341 15.918200 22.129600  5.830540
360  2 -0.7058  6.784740  7.712690 11.107200
361  2 -0.6867  7.780660 14.415400 19.360500
362  2 -0.7302  6.131230  0.267371 14.433400
363  2 -0.4953 15.398100 10.366300 10.777500
364  2 -0.6427  1.549350 13.229500 10.894700
365  2 -0.9325 11.986100 10.372900 17.726600
366  2 -0.6549 11.490800  9.736960 21.462400
367  2 -0.7753  6.128270 16.792800  7.629080
368  2 -0.6719  1.815980 13.179500 14.253100
369  2 -0.7490 17.305900  4.371630 15.910100
370  2 -0.4856  9.596460  6.553870 12.788000
371  2 -0.4246 13.471500 12.214700  9.479540
372  2 -0.6213 11.173200 20.886100 11.819200
373  2 -0.6550  4.416670 17.174800  4.347390
374  2 -0.6771 11.303600  3.519100  2.640840
375  2 -0.6982 12.353500  2.270980 19.197500
376  2 -0.7944 10.591200  8.425310  8.877050
377  2 -0.5035 13.822500 15.252200  7.553050
378  2 -0.2548 14.224200 16.361700 10.744900
379  2 -0.5972 13.282200  5.294590 10.126100
380  2 -0.8149 18.279100  9.700920 17.414400
381  2 -0.7236 14.182100  7.348600 19.627000
382  2 -0.6109 15.330400  9.672950 22.103500
383  2 -0.8620  0.350605 18.879100 11.760500
384  2 -0.8016 16.211900 20.916800 18.359900
385  2 -0.7268  9.563210 21.907600 15.281800
386  2 -0.7309  6.148060  2.178190 19.245800
387  2 -0.7031  8.899220  5.423740 21.120600
388  2 -0.6907 11.687400  5.372970 16.399700
389  2 -0.4491 11.358600 13.268800 22.049500
390  2 -0.7427  9.312780 19.105500  7.851880
391  2 -0.6059  2.357880 16.850200 15.567500
392  2 -0.5476 17.532100  6.789260 22.880800
393  2 -0.6189  1.100240 14.124600 20.122800
394  2 -0.9153  8.074940 17.923400 21.541200
395  2 -0.4944  5.559900 16.911000 25.299300
396  2 -0.6296 16.865600 21.929600 13.711000
397  2 -0.7203  8.590020 14.237100 16.161300
398  2 -0.3920  7.635660  2.935810 10.295000
399  2 -0.6644  7.513980  8.693310 24.026000
400  2 -0.5845  2.002770 16.695300 18.727300
401  2 -0.7395  8.643240  7.579980 18.061500
402  2 -0.8164 16.773300 15.295500 24.988800
403  2 -0.5264 14.468500  3.751450 14.765000
404  2 -0.7103  9.876150 22.185000 20.610100
405  2 -0.7251  8.292280 16.032700 10.774400
406  2 -0.7085 13.970000 18.568300 15.648000
407  2 -0.4619  7.978360  3.581550 14.172800
408  2 -0.7360 16.448100  4.089710 19.346700
409  2 -0.6248  4.018400 15.170800 22.118500
410  2 -0.4546  2.327400 15.064900 25.984200
411  2 -0.6636 13.779800 10.841500 25.543700
412  2 -0.5632  6.906250 11.710200 22.216300
413  2 -0.4312  3.227140 11.791200 22.724700
414  2 -0.6877 14.331800 21.351800 25.648800
415  2 -0.6821 12.180800  6.242210 22.919400
416  2 -0.7067  1.939660  9.550570 20.665100
417  2 -0.6909  5.499290  7.161050 21.275200
418  2 -0.7087  9.808360 11.374800 27.048700
419  2 -0.5606 11.386200 17.908900 24.173500
420  2 -0.6978  5.684250  3.893340 25.050100
421  2 -0.8406  4.893750 19.527200 15.823900
422  2 -0.4940 12.630100 21.038200 28.707100
423  2 -0.6344  9.318240  3.711660 24.613300
424  2 -0.6827 15.361300 15.990900 19.880400
425  2 -0.7964 14.917100 18.363000 27.998400
426  2 -0.6466  2.728830 18.645600 24.779900
427  2 -0.8012  5.992490 -0.101249 26.161800
428  2 -0.7138  5.442850  8.096520 32.931900
429  2 -0.4603 13.794900  0.074554 15.969900
430  2 -0.4673 15.129100  6.663540 25.217100
431  2 -0.6766 11.448700 13.904200 25.415800
432  2 -0.6727 15.258200 18.538600 22.037900
433  2 -0.9257  3.322330  8.646000 28.942200
434  2 -0.6634  3.728270  1.006420 30.547100
435  2 -0.6780  7.933620 14.667000 24.057700
436  2 -0.6498  4.731560 10.758600 25.731400
437  2 -0.8168  4.486050 18.875300 30.222500
438  2 -0.6210 15.045100 18.549300 31.475500
439  2 -0.5606  3.223030  4.633090 22.762900
440  2 -0.6357  1.665350  1.987210 26.675000
441  2 -0.5657  5.789880  3.916190 30.355900
442  2 -0.6126  7.478330  6.489840 26.825000
443  2 -0.6568  8.087720 19.980000 28.175000
444  2 -0.5887 11.728300 16.882600 21.154100
445  2 -0.4811  5.790710  1.290890 34.987100
446  2 -0.5133  8.929020  1.715860 27.704400
447  2 -0.6002 11.649000  8.377690 26.110500
448  2 -0.6970 13.334200  8.034550 32.873000
449  2 -0.4310 16.762300  3.169850 23.835500
450  2 -0.7147 11.940400  0.337410 38.896600
451  2 -0.7669  5.805990 -0.011399 22.452200
452  2 -0.6971 14.473100  9.561550 29.859800
453  2 -0.7100 17.263000  4.778620 30.870100
454  2 -0.5750  0.676884  5.974430 28.031200
455  2 -0.6435  0.892979 20.577300 28.658500
456  2 -0.7126 14.667600  4.908760 28.849500
457  2 -0.4851  0.499910 12.007300 24.513800
458  2 -0.5784 11.016000 18.464300 31.199200
459  2 -0.7279  7.450560 20.608100 32.854600
460  2 -0.8093  6.791340 13.902500 29.166900
461  2 -0.4933  1.610060 20.182600 32.278000
462  2 -0.9020  2.124760 15.895800 32.705000
463  2 -0.6276  0.503995 10.503300 27.580700
464  2 -0.6205 -0.247430 -0.297641 24.990600
465  2 -0.7669 11.995000  8.364270 36.549800
466  2 -0.4348  5.016320  4.592850 33.639600
467  2 -0.7943  9.862260 16.798700 28.075100
468  2 -0.8878  8.765910 13.782200 34.785100
469  2 -0.5473 11.075000  0.765866 25.317400
470  2 -0.8996  1.435840  3.099180 36.621900
471  2 -0.7494 11.337700  4.628360 29.050300
472  2 -0.7740  8.896910  9.570540 29.518300
473  2 -0.6271  8.249790 20.011200 24.274800
474  2 -0.9694 16.500600 13.535800 29.803900
475  2 -0.6860  6.403270  1.541740 38.388700
476  2 -0.7446 14.593500  0.862629 31.580400
477  2 -0.7271 17.093500  7.972270 32.668800
478  2 -0.5779  3.952050  7.326550 24.874700
479  2 -0.5964  3.373750 15.020100 29.597400
480  2 -0.8389 11.065400 11.434100 31.152500
481  2 -0.7021 14.427900 11.424700 39.151400
482  2 -0.8891  5.364720 14.248200 35.226100
483  2 -0.5795  6.151260  9.854890 35.889200
484  2 -0.6478  5.397780 13.675100 41.145900
485  2 -0.8812  6.594940 15.833000 38.294600
486  2 -0.5531 17.241300 18.361900 34.709900
487  2 -0.6201 17.424000 21.483400  1.858660
488  2 -0.5845 16.728400  1.253750 39.365600
489  2 -0.7606  1.193250  4.774180 39.686700
490  2 -0.8480  9.579020 11.078000 37.288500
491  2 -0.6463 10.665600 17.191000 40.242000
492  2 -0.5862 14.287900  1.630890  3.340900
493  2 -0.6761  5.774470 19.982200 35.615500
494  2 -0.6794  6.323660  6.636250 37.750000
495  2 -0.3577 10.242300  1.536890 30.619900
496  2 -0.7620 15.800900  9.395540  0.808827
497  2 -0.5000 15.347900  2.231070 34.815900
498  2 -0.7810  0.963115 17.824100 40.702500
499  2 -0.6384  1.707820 20.989400 38.118300
500  2 -0.4196 12.134000  3.326330 33.492800
501  2 -0.5498 10.688600 22.429400 34.178400
502  2 -0.6108 10.461600  6.445800 34.437500
503  2 -0.8178  0.282983  1.336910 32.958100
504  2 -0.5017  8.411290  4.958040 31.949800

