Generated by pymatgen.io.lammps.data.LammpsData

320  atoms

  2  atom types

0.000000 24.716819  xlo xhi
0.000000 16.800915  ylo yhi
0.000000 27.370788  zlo zhi

Masses

1  208.9804
2   78.9600

Atoms

1    1  0.7495 -2.313910 18.209500  0.750034
2    1  0.7528 22.210800  1.396750 14.391800
3    1  0.7528 -2.253290  9.846380  0.746854
4    1  0.7553 -2.378790  9.871920 14.391200
5    1  0.7528  9.884080  1.507300  0.710080
6    1  0.7456  9.997220 18.206500 14.461100
7    1  0.7515  9.677520  9.960320  0.765718
8    1  0.7611  9.625270  9.892770 14.427300
9    1  0.7462  3.679050  5.660390 10.140400
10   1  0.7495  3.662010  5.683400 23.801200
11   1  0.7524  3.689380 14.056800 10.088000
12   1  0.7561  3.702890 14.079900 23.788700
13   1  0.7537 16.045500  5.644640 10.233400
14   1  0.7422 16.096200  5.673640 23.872100
15   1  0.7464 16.027000 14.076400 10.236200
16   1  0.7475 16.037900 14.065100 23.895000
17   1  0.7578  3.672060  5.693390  6.106830
18   1  0.7632  3.712630  5.698410 19.821000
19   1  0.7601  3.698300 13.998800  6.070800
20   1  0.7547  3.699910 14.142400 19.760500
21   1  0.7559 16.046600  5.691040  6.244370
22   1  0.7642 16.030900  5.701030 19.847900
23   1  0.7551 16.007100 14.037900  6.238870
24   1  0.7467 15.965700 14.077600 19.794600
25   1  0.7485 22.180200 18.309200 10.317400
26   1  0.7439 -2.497150  1.533280 23.997800
27   1  0.7461 -2.468200  9.829080 10.317700
28   1  0.7550 22.270600  9.871110 23.998600
29   1  0.7435  9.911590 18.228400 10.305200
30   1  0.7480  9.923420 18.257500 23.993200
31   1  0.7463  9.819910  9.878580 10.319400
32   1  0.7521  9.819390  9.891220 24.018600
33   1  0.7804 -2.376680  5.743120  0.744920
34   1  0.7817 22.148200  5.633340 14.426300
35   1  0.7844 -2.231810 14.129900  0.580166
36   1  0.7877 -2.361630 14.032100 14.275800
37   1  0.7914  9.711710  5.653510  0.562367
38   1  0.7881  9.739980  5.618220 14.340800
39   1  0.7808  9.758500 14.003000  0.702174
40   1  0.7847  9.930240 14.122700 14.512800
41   1  0.7847 -2.492830  5.672640 10.325700
42   1  0.7935 22.245600  5.699030 23.979300
43   1  0.7988 -2.488330 14.074500 10.151000
44   1  0.7874 -2.438250 14.088900 23.828700
45   1  0.7895  9.851330  5.679710 10.202500
46   1  0.7971  9.826630  5.692610 23.853800
47   1  0.7952  9.835420 14.032600 10.337100
48   1  0.7951  9.855690 14.047500 24.004400
49   1  0.7838  3.696880  1.478550  6.191440
50   1  0.7890  3.819980  1.469220 19.910400
51   1  0.7828  3.711970  9.850260  6.115130
52   1  0.7905  3.607340  9.858210 19.853800
53   1  0.7827 16.007700 18.265000  6.272230
54   1  0.7887 16.023700  1.439110 19.861100
55   1  0.7827 16.041500  9.834670  6.292420
56   1  0.7897 15.991600  9.866780 19.928500
57   1  0.7812  3.646750 18.236400 10.240200
58   1  0.7837  3.726340 18.327300 23.915300
59   1  0.8002  3.668620  9.873720 10.166400
60   1  0.7968  3.652550  9.928000 23.862300
61   1  0.7927 16.037400 18.270900 10.249700
62   1  0.7835 16.078400  1.504770 23.935000
63   1  0.7822 16.031000  9.844810 10.356500
64   1  0.7703 16.099200  9.838450 24.012100
65   1  0.8141  0.473791  7.847590 25.958500
66   1  0.8134  0.421892  7.753480 12.281800
67   1  0.8341  0.557735 16.205800 25.880100
68   1  0.8288  0.483751 16.189400 12.213800
69   1  0.8011 12.696500  7.769150 25.997400
70   1  0.8094 12.696100  7.773600 12.340500
71   1  0.8122 12.773100 16.165800 25.988600
72   1  0.8064 12.762500 16.140000 12.325800
73   1  0.8105  6.838370  7.795760 25.844400
74   1  0.8196  6.869160  7.726420 12.205900
75   1  0.8059  6.977410 16.184900 25.919300
76   1  0.8100  6.999350 16.132800 12.266200
77   1  0.8065 19.422300  7.811840 25.977400
78   1  0.7948 19.361000  7.791910 12.350100
79   1  0.8017 19.440000 16.188500 25.957400
80   1  0.8132 19.319100 16.185700 12.246500
81   1  0.8174  0.443962  3.577810 25.913800
82   1  0.8042  0.349250  3.554960 12.313100
83   1  0.8420  0.541998 12.033500 25.885300
84   1  0.8290  0.537026 11.952500 12.169000
85   1  0.7935 12.742800  3.596360 25.935800
86   1  0.8162 12.777100  3.561640 12.240200
87   1  0.8071 12.703900 11.939500 25.985900
88   1  0.8115 12.705200 11.933400 12.402000
89   1  0.8406  6.899440  3.641920 25.925700
90   1  0.8189  6.930930  3.585620 12.287400
91   1  0.8148  6.875160 11.915400 25.942000
92   1  0.8153  6.887570 11.946200 12.318100
93   1  0.7982 19.389500  3.616550 26.030600
94   1  0.8056 19.318200  3.589280 12.281500
95   1  0.7924 19.440400 11.998300 26.000800
96   1  0.8018 19.389600 11.946100 12.280300
97   1  0.8079  0.778328  7.768160  8.160770
98   1  0.8161  0.769335  7.788430 21.858000
99   1  0.8261  0.748486 16.198900  8.145080
100  1  0.8218  0.820224 16.253100 21.894400
101  1  0.8204 13.106600  7.786890  8.338900
102  1  0.8362 13.118900  7.801390 21.976200
103  1  0.8029 13.157700 16.163000  8.332130
104  1  0.8093 13.136600 16.139200 21.942200
105  1  0.8099  6.574730  7.778350  8.255350
106  1  0.8167  6.576400  7.819120 21.933100
107  1  0.8099  6.579870 16.159300  8.229700
108  1  0.8087  6.634140 16.180300 21.938600
109  1  0.8252 18.985000  7.745030  8.278100
110  1  0.8019 18.965600  7.809210 22.018800
111  1  0.8189 18.942300 16.154300  8.191260
112  1  0.8079 18.948800 16.192300 21.951600
113  1  0.8140  0.797494  3.556630  8.231410
114  1  0.8063  0.809389  3.630160 21.887200
115  1  0.8125  0.788517 11.944000  8.222020
116  1  0.8241  0.751205 11.984600 21.749100
117  1  0.8195 13.095200  3.590880  8.232980
118  1  0.8128 13.148000  3.565300 22.000400
119  1  0.8157 13.092200 11.952000  8.287030
120  1  0.8232 13.148500 11.889800 22.029300
121  1  0.8274  6.594030  3.520410  8.221420
122  1  0.8353  6.671370  3.571450 21.803300
123  1  0.8129  6.593710 11.939100  8.185320
124  1  0.8198  6.619870 12.017700 21.803600
125  1  0.8067 18.903200  3.542990  8.278750
126  1  0.8084 18.959200  3.572330 21.982900
127  1  0.8255 18.971900 11.973500  8.341900
128  1  0.8110 18.929000 11.942700 22.012600
129  2 -0.8191  6.804630  5.568420 10.224600
130  2 -0.8174  6.827330  5.597370 23.795600
131  2 -0.8179  6.879110 14.060500 10.272200
132  2 -0.8247  6.893770 14.052000 23.848200
133  2 -0.8266 19.216700  5.719230 10.223300
134  2 -0.8273 19.277900  5.685030 24.009700
135  2 -0.8185 19.207200 14.076700 10.172300
136  2 -0.8114 19.225000 14.084100 23.933800
137  2 -0.8157  0.475607  5.634270 10.260800
138  2 -0.8255  0.481719  5.666060 23.868700
139  2 -0.8091  0.581344 14.138200 10.136800
140  2 -0.8092  0.616359 14.084800 23.796900
141  2 -0.8204 12.866700  5.684270 10.255300
142  2 -0.8191 12.891800  5.740760 23.901200
143  2 -0.8184 12.810900 14.002900 10.327600
144  2 -0.8158 12.874600 14.012400 23.977700
145  2 -0.1371 -2.289950  3.736600  3.302810
146  2 -0.1254 21.521400  3.665080 16.937900
147  2 -0.1651 -1.802440 12.140600  3.049400
148  2 -0.1506 -1.588660 12.239500 16.775800
149  2 -0.1304  9.704590  3.703490  3.303380
150  2 -0.1269 10.959100  3.737960 16.856400
151  2 -0.1069  8.502900 12.115800  3.307300
152  2 -0.1184  8.487410 12.185700 16.871900
153  2 -0.1068 -1.085830  7.700050  3.286640
154  2 -0.1220 -1.971440  7.726940 17.035300
155  2 -0.1313 -1.370840 15.999500  3.243010
156  2 -0.1363 22.172300 15.962100 16.967200
157  2 -0.1611  9.260360  7.511610  2.997000
158  2 -0.1634  9.198210  7.505230 16.749400
159  2 -0.1265  9.411370 16.013200  3.278530
160  2 -0.1278 10.822000 16.003100 17.006200
161  2 -0.8080  6.726240 18.318900 10.248700
162  2 -0.8103  6.778230 18.404900 23.969000
163  2 -0.8313  6.630710  9.853480 10.240400
164  2 -0.8350  6.655190  9.907770 23.890500
165  2 -0.8311 19.010300 18.213600 10.286800
166  2 -0.8290 19.090700  1.422970 23.972100
167  2 -0.8229 19.120900  9.889490 10.339600
168  2 -0.8419 19.136200  9.894120 23.974900
169  2 -0.8201  0.650992  1.392570 10.257700
170  2 -0.8283  0.690142  1.436320 23.958300
171  2 -0.8340  0.724858  9.909850 10.238200
172  2 -0.8157  0.668580  9.964940 23.928500
173  2 -0.8351 13.065200 18.339600 10.286100
174  2 -0.8344 13.053300  1.478810 23.951300
175  2 -0.8194 12.926800  9.844680 10.338100
176  2 -0.8278 12.986800  9.822800 23.974500
177  2 -0.1493  2.820340  3.412770  3.770660
178  2 -0.1380  2.790800  3.412200 17.454600
179  2 -0.1259  4.688000 11.764600  3.606640
180  2 -0.1221  4.920350 11.792700 17.433200
181  2 -0.1440 16.575100  3.451700  3.765650
182  2 -0.1400 16.481600  3.381420 17.417000
183  2 -0.1484 15.006700 11.695200  3.883690
184  2 -0.1589 15.404800 11.764500 17.416100
185  2 -0.1270  2.731110  7.928550  3.637150
186  2 -0.1416  2.926300  8.036180 17.399000
187  2 -0.1419  4.616740 16.326600  3.789630
188  2 -0.1502  4.296540 16.414000 17.375800
189  2 -0.1384 17.045500  7.984950  3.819370
190  2 -0.1356 17.004200  7.996540 17.431400
191  2 -0.1417 15.425100 16.251600  3.749740
192  2 -0.1174 14.702200 16.348300 17.406000
193  2 -0.4105  0.791222  5.698470  6.182080
194  2 -0.4212  0.835883  5.694450 19.876700
195  2 -0.4229  0.842256 13.988000  6.112950
196  2 -0.4314  0.803113 14.211400 19.846400
197  2 -0.4307 13.129000  5.665360  6.303800
198  2 -0.4132 13.175100  5.703180 19.911400
199  2 -0.4228 13.151900 14.081800  6.296480
200  2 -0.4144 13.102800 14.072200 19.939900
201  2 -0.4225  6.538970  5.726530  6.178340
202  2 -0.4356  6.584190  5.779640 19.876600
203  2 -0.4064  6.596230 14.003000  6.177350
204  2 -0.4045  6.618300 14.180300 19.817100
205  2 -0.4196 18.901100  5.643690  6.273830
206  2 -0.3969 18.904300  5.581320 19.877500
207  2 -0.4413 18.910000 14.062700  6.300670
208  2 -0.4187 18.890600 14.037300 19.889700
209  2 -0.9357 -2.479580  7.716900 12.412300
210  2 -0.9344 -2.413950  7.764190 26.050300
211  2 -0.9124 -2.467180 16.103700 12.243300
212  2 -0.9263 -2.365250 16.134900 25.972100
213  2 -0.9140  9.790300  7.739300 12.319900
214  2 -0.9147  9.753620  7.733650 25.949900
215  2 -0.9294  9.879980 16.091100 12.403900
216  2 -0.9186  9.856600 16.093600 26.048300
217  2 -0.9380 22.182400  3.593030 12.376300
218  2 -0.9194 -2.430920  3.655180 26.059500
219  2 -0.9183 -2.407570 12.007000 12.254900
220  2 -0.9117 -2.349850 12.037600 25.961200
221  2 -0.9141  9.870430  3.594270 12.317300
222  2 -0.9236  9.821050  3.636910 25.943300
223  2 -0.9182  9.826340 12.013700 12.439300
224  2 -0.9410  9.794900 11.997500 26.031000
225  2 -0.4285  0.532456 18.289500  0.488974
226  2 -0.4240  0.374944 18.267600 14.332000
227  2 -0.4327  0.554939  9.858130  0.503551
228  2 -0.4126  0.466898  9.849500 14.276100
229  2 -0.4223 12.729400  1.463950  0.685212
230  2 -0.4080 12.822100  1.334880 14.358500
231  2 -0.4109 12.576800  9.939420  0.827565
232  2 -0.4284 12.575600  9.869310 14.446300
233  2 -0.4241  7.020080  1.467010  0.548329
234  2 -0.4087  7.074280 18.160400 14.464300
235  2 -0.4269  6.841950  9.937270  0.555916
236  2 -0.4165  6.817770  9.837600 14.260900
237  2 -0.4008 19.533000 18.180200  0.864861
238  2 -0.4200 19.368100  1.495490 14.322100
239  2 -0.3972 19.528400  9.832400  0.859210
240  2 -0.4251 19.437500  9.926090 14.412700
241  2 -0.9393  3.687460  7.817840  8.133040
242  2 -0.9397  3.670480  7.828070 21.833300
243  2 -0.9346  3.677720 16.203300  8.136210
244  2 -0.9414  3.731170 16.216300 21.851500
245  2 -0.9288 16.035400  7.813090  8.279930
246  2 -0.9345 16.035800  7.827400 21.909500
247  2 -0.9411 16.027000 16.196700  8.210190
248  2 -0.9309 16.045100 16.235500 21.882500
249  2 -0.9361  3.689640  3.524270  8.177400
250  2 -0.9369  3.763270  3.543530 21.818600
251  2 -0.9406  3.677360 11.911000  8.120680
252  2 -0.9305  3.644100 11.928900 21.790800
253  2 -0.9397 16.025100  3.531430  8.205160
254  2 -0.9264 16.061700  3.552350 21.882600
255  2 -0.9229 16.044900 11.887600  8.302670
256  2 -0.9256 16.023500 11.924600 21.938300
257  2 -0.4472  6.929660  5.680360  0.474503
258  2 -0.4606  6.976490  5.659450 14.202400
259  2 -0.3913  6.907690 14.063700  0.661819
260  2 -0.4059  7.049650 14.158800 14.360600
261  2 -0.4268 19.491300  5.812300  0.640178
262  2 -0.4043 19.276800  5.576820 14.389200
263  2 -0.4272 19.541600 14.102500  0.646881
264  2 -0.4369 19.545500 14.075000 14.330200
265  2 -0.3939  0.467315  5.695950  0.662708
266  2 -0.4187  0.284569  5.662470 14.321600
267  2 -0.4467  0.530339 14.152000  0.439816
268  2 -0.4415  0.462428 14.035400 14.118300
269  2 -0.4372 12.578800  5.679640  0.627865
270  2 -0.4148 12.631500  5.635910 14.343000
271  2 -0.4453 12.588600 14.030600  0.548540
272  2 -0.4219 12.732200 14.087700 14.409300
273  2 -0.4325 -2.465380  3.557300  8.286530
274  2 -0.4410 22.208400  3.545450 21.970700
275  2 -0.4340 22.210400 11.933900  8.236100
276  2 -0.4343 -2.530550 11.966800 21.904900
277  2 -0.4303  9.868700  3.611730  8.247230
278  2 -0.4346  9.921870  3.598330 21.905400
279  2 -0.4457  9.841810 11.988900  8.316210
280  2 -0.4329  9.834600 11.983000 21.964100
281  2 -0.4432 22.237100  7.751450  8.294960
282  2 -0.4431 -2.511170  7.778850 21.970500
283  2 -0.4360 22.209500 16.179300  8.228560
284  2 -0.4239 22.279200 16.222300 21.879500
285  2 -0.4358  9.865030  7.785010  8.253720
286  2 -0.4311  9.870050  7.805530 21.925700
287  2 -0.4371  9.822430 16.161700  8.313890
288  2 -0.4397  9.916510 16.146300 21.969300
289  2 -0.4238  6.598460  1.462410  6.255850
290  2 -0.4540  6.624050 18.244400 19.928000
291  2 -0.4219  6.562240  9.815690  6.190940
292  2 -0.4088  6.531380  9.889120 19.859700
293  2 -0.4142 18.895500  1.491330  6.191960
294  2 -0.4185 18.802100 18.298400 19.848800
295  2 -0.4258 18.913600  9.866580  6.333010
296  2 -0.4083 18.882900  9.849050 19.911400
297  2 -0.4266  0.799132  1.487370  6.221430
298  2 -0.4110  0.898793  1.507360 19.854700
299  2 -0.4108  0.817928  9.859020  6.121630
300  2 -0.4481  0.810352  9.851310 19.882300
301  2 -0.4137 13.106800 18.230800  6.276400
302  2 -0.4008 13.148800 18.353200 19.907300
303  2 -0.4297 13.170700  9.809870  6.315230
304  2 -0.4555 13.180600  9.841210 20.070600
305  2 -0.4343  3.703390  3.547440 12.229200
306  2 -0.4503  3.678150  3.588620 25.856000
307  2 -0.4557  3.643350 11.993000 12.132200
308  2 -0.4532  3.611500 11.995100 25.841200
309  2 -0.4382 16.015100  3.594200 12.250300
310  2 -0.4366 16.087100  3.611800 25.949300
311  2 -0.4242 16.050300 11.987300 12.344300
312  2 -0.4190 16.115700 11.990900 26.034200
313  2 -0.4411  3.718010  7.798930 12.193200
314  2 -0.4570  3.681830  7.773610 25.832600
315  2 -0.4353  3.656870 16.119200 12.215500
316  2 -0.4405  3.745920 16.127700 25.883600
317  2 -0.4324 16.006800  7.714070 12.332400
318  2 -0.4241 16.066400  7.758110 26.019200
319  2 -0.4381 16.034000 16.162600 12.269600
320  2 -0.4206 16.114100 16.187900 25.955500

