Generated by pymatgen.io.lammps.data.LammpsData

360  atoms

  2  atom types

0.000000 16.677463  xlo xhi
0.000000 21.699897  ylo yhi
0.000000 28.493178  zlo zhi

Masses

1  208.9804
2   78.9600

Atoms

1    1  0.8262 16.411600 13.899800 23.149300
2    1  0.7834  1.945530 20.676900 20.511600
3    1  0.7660  1.154260  6.190500 21.021500
4    1  0.8531  4.960690 12.254900 15.814900
5    1  0.8355  7.585410  8.501710 25.631700
6    1  0.9105  8.404340 15.488300 20.498700
7    1  0.7612 11.898700  2.959290 21.941000
8    1  0.7482  2.454870  3.373320 23.189500
9    1  0.7554  8.465790  4.622240 20.685400
10   1  0.7868  9.124370 10.305600 18.860100
11   1  0.7935  6.806750 15.797800 24.013300
12   1  0.7825 15.328800 16.499300 27.431400
13   1  0.8582  6.786690  0.267512 23.723200
14   1  0.8513  5.885180  1.872750 20.276200
15   1  0.8931 11.333600  4.421000 18.193100
16   1  0.8152 16.607200  9.783320 19.457600
17   1  0.8578 11.933200 14.687200 22.761400
18   1  0.8204  0.066144 19.724800 25.951000
19   1  0.7352  8.726050 20.212700 21.497400
20   1  0.7091 11.857400 21.651500 19.456300
21   1  0.8472 14.693000  8.681230 27.977000
22   1  0.7932 11.091900  8.049980 20.660100
23   1  0.7647 11.490200 19.036400 23.610500
24   1  0.7884  0.861985  1.446530 28.338100
25   1  0.8295  1.331160 14.856800 25.910200
26   1  0.7604  3.456610 19.459100 24.940500
27   1  0.8174  4.210410 12.638200 25.363500
28   1  0.8266 15.041400  9.398570 24.041000
29   1  0.7594  2.337870 16.948100 22.541700
30   1  0.7144  7.988470 17.214900  0.221796
31   1  0.7774 15.823700  0.739759 23.250300
32   1  0.7902  5.365910  5.773630 22.750400
33   1  0.8500  8.056680 11.924200 23.155400
34   1  0.8019  7.796510 11.889700  0.437222
35   1  0.8107  9.730970 14.577600 26.279300
36   1  0.8896 10.422800  0.777973 25.325600
37   1  0.8214  4.992580  1.709350 26.203800
38   1  0.8708  7.463570  4.437540 26.435300
39   1  0.8868 11.151900  8.574030 27.799100
40   1  0.7919 11.552500  6.717620 23.562100
41   1  0.8555 13.306500 13.155200 25.844500
42   1  0.7441 13.358400 15.731800  2.551070
43   1  0.8008 11.135500 16.925100 28.290000
44   1  0.6919 14.879800  5.834590 23.746600
45   1  0.8522 13.973100  0.739855 26.135900
46   1  0.8409 11.787000 10.371500 23.684400
47   1  0.7735  0.543144  1.953400  3.819580
48   1  0.8250  0.759472  4.876460 27.112300
49   1  0.8311  0.601347 16.257000  5.170280
50   1  0.8563  5.929270  0.722976  1.680380
51   1  0.7793  1.629790 10.377700 28.280500
52   1  0.7653  3.968390 16.619600 28.228500
53   1  0.8111  2.423520 19.066200  2.013200
54   1  0.7011  9.484540 14.932400  4.535930
55   1  0.8170  2.274360  5.193240  2.747830
56   1  0.7451  3.901460  5.050700  6.762260
57   1  0.8212  3.881170  6.726140 28.143100
58   1  0.8609  4.801590 12.351000  3.545870
59   1  0.8153  0.259994 12.181200  4.997480
60   1  0.8510 11.390900 18.808600  4.096890
61   1  0.5794  7.802970 19.461800  2.793240
62   1  0.8190  6.855790  4.655880  2.386840
63   1  0.8642 12.471500  4.738480 28.241300
64   1  0.7760 14.212300 12.138600  1.865660
65   1  0.8233 15.626500 20.179300  3.705370
66   1  0.7847 16.090200 19.953100  6.747550
67   1  0.8513 10.163400  1.601080  0.643075
68   1  0.9044  8.946730  7.347090  5.840900
69   1  0.8348  7.248200  9.088120  2.336950
70   1  0.7990  1.360220 14.467700  2.061090
71   1  0.7426  4.505530  0.833944  6.270160
72   1  0.7808 14.504000  6.576740  2.629220
73   1  0.6624 15.959700 15.732800 11.918300
74   1  0.6161  7.161450 21.373800  8.397270
75   1  0.7648 15.174100  6.274250  7.575130
76   1  0.8658  1.711660 10.459200 11.602900
77   1  0.8228  6.213600 17.517800  9.004420
78   1  0.5406  8.499260 19.053100  6.094020
79   1  0.6114  5.536560 18.875300  5.262450
80   1  0.7979  0.766295  9.021380  3.728080
81   1  0.8025  7.449750 12.319100  6.041690
82   1  0.7914  2.704600 14.027700 10.027800
83   1  0.7730  9.847190  1.701250 12.649500
84   1  0.6941 12.885000  1.103590  3.717500
85   1  0.7519  2.583470  5.124500 10.855100
86   1  0.7902  7.826120  3.634860  6.133330
87   1  0.8439 11.233600 10.224300  9.092070
88   1  0.7991 12.120000 14.134200  8.901550
89   1  0.7859 13.168400 14.514200  5.321060
90   1  0.7803 12.639800  2.133830  9.682980
91   1  0.7225  9.927480  0.417417  6.617480
92   1  0.7913 10.474600  4.848090  3.007590
93   1  0.8499 10.490000 11.526300  3.797980
94   1  0.7100 16.232700 13.320600  8.524660
95   1  0.8560  2.796300 18.141500  7.383770
96   1  0.8144 14.471100 10.350500  9.130190
97   1  0.7928 15.405500 20.474800 10.416300
98   1  0.7789  3.568770 20.493400 10.263300
99   1  0.8802 16.446200  4.478790 16.194600
100  1  0.7294 14.407800  7.540070 12.512200
101  1  0.6916  2.185660 14.100600 18.901800
102  1  0.6378  5.688500  2.484510 11.327500
103  1  0.8114  0.715095  0.072671 14.889500
104  1  0.6219 14.280900  3.136120  5.957210
105  1  0.7540  0.067603  2.416670 10.671800
106  1  0.7595  5.386710  8.273110 14.179000
107  1  0.8211  7.305690 18.747900 18.334600
108  1  0.6929 12.091100 12.951900 13.313600
109  1  0.7598  0.847156  1.337480  7.670920
110  1  0.8809  2.000820  8.263690  8.546130
111  1  0.7821  6.841060  9.725330 11.071000
112  1  0.8066  7.815920 13.646400 11.292900
113  1  0.7926 11.482100 16.885000 11.817100
114  1  0.8213 14.753000 16.664200 15.220400
115  1  0.8311 13.636700  0.760787 15.121000
116  1  0.7347  5.594040  7.011780  8.909470
117  1  0.6645  9.201060  2.932910  9.244420
118  1  0.7303 10.800500  8.982860 13.140300
119  1  0.7908  8.312580  5.930980 12.281600
120  1  0.7336 11.482400  6.688550  9.608600
121  1  0.8480 14.746500 17.412400 22.810700
122  1  0.9417  1.221560 14.737700 14.778100
123  1  0.8332 15.546500  9.585900 15.359700
124  1  0.8846 15.467200 15.017100 19.119500
125  1  0.8568  2.229480 10.858200 21.430400
126  1  0.8880  5.821030  1.241770 15.998200
127  1  0.7641 15.577100 20.675900 18.524200
128  1  0.8229  3.539020  4.766270 18.564800
129  1  0.8301  2.669340  8.973650 16.727700
130  1  0.7994  2.290830 18.057200 17.716500
131  1  0.6648  5.104520 14.021600 18.763500
132  1  0.8415  9.743970 18.536300 15.431800
133  1  0.7174  0.459041  2.269290 19.499700
134  1  0.7774  4.598200  4.259120 14.092500
135  1  0.7616 12.853500  7.795300 16.902700
136  1  0.7619  8.442600 12.254000 15.137000
137  1  0.8261 11.265600 15.151600 16.454900
138  1  0.7549 12.145400 11.386400 16.918500
139  1  0.7771 10.056000  0.247740 16.839900
140  1  0.7992  6.459240  7.100960 18.242300
141  1  0.6979 14.326500  4.536580 20.525700
142  1  0.8489 14.135500 11.722400 20.722200
143  1  0.8520 11.254700 17.998800 19.524900
144  1  0.7853 12.819200  4.229290 12.646800
145  2 -0.4717  6.311350 17.430700 26.614500
146  2 -0.5319 14.229600 18.238300  5.007430
147  2 -0.6644 12.764700  4.461600 24.004500
148  2 -0.3493  0.563245  7.603090 25.320600
149  2 -0.6216  3.343900  2.140930 19.906300
150  2 -0.6195  3.644930 15.534100 25.382300
151  2 -0.6041  0.861058 21.105000  2.151170
152  2 -0.5087  2.612530  6.066440 23.394400
153  2 -0.5417  2.717920 13.541000 28.065900
154  2 -0.7264  0.049240 16.352300 24.399500
155  2 -0.5602  7.035830 13.607300 26.253800
156  2 -0.3985 13.540900 20.521200  2.192310
157  2 -0.3678  7.430680 21.305000 12.023900
158  2 -0.5074  7.332870  7.746520 28.409200
159  2 -0.7215 13.257600  8.174740 25.577400
160  2 -0.7180  7.767490 12.384900  3.612370
161  2 -0.3383 12.564700 17.856700 26.144600
162  2 -0.4707 12.345100 10.784000 27.630800
163  2 -0.3211  7.858170 20.985100 28.291000
164  2 -0.4575  4.845960  7.065990  2.661570
165  2 -0.4626 13.271800 13.459300 18.493400
166  2 -0.1387  2.539630  8.718840 25.729100
167  2 -0.5992 11.889300  2.452920 27.019300
168  2 -0.6906 12.879700  3.483160  2.058150
169  2 -0.3672 13.728100 18.051700  0.587529
170  2 -0.6505 15.694900  2.525400 26.525700
171  2 -0.7129  0.062973 12.240200 20.174300
172  2 -0.6093 16.241200 13.922000 27.590000
173  2 -0.4897  3.362620  0.321153 28.310000
174  2 -0.4388  9.770400 19.930100 25.728300
175  2 -0.4992  3.324430  3.913780  0.579187
176  2 -0.4477  1.290820 11.583200 24.243900
177  2 -0.2669  5.214360  8.801760 23.903300
178  2 -0.3982  5.332540 10.074700 26.882600
179  2 -0.5979  1.128210 19.210700 23.709400
180  2 -0.4550 15.813300 20.452200 28.107900
181  2 -0.4892  5.216230  6.068100 25.702300
182  2 -0.6237 14.859600  5.886080 28.009300
183  2 -0.6778  9.765000  8.960910 23.364000
184  2 -0.5523 12.890800 14.629200 28.370000
185  2 -0.6227  0.172825 16.721700  2.296200
186  2 -0.5968 16.583500  4.070060  1.895230
187  2 -0.4675  5.845130 20.540600 25.783200
188  2 -0.5024  6.100590 19.912600 22.192300
189  2 -0.5893  6.427520  3.376720  0.110244
190  2 -0.5046 10.071900  6.435370 26.219500
191  2 -0.8078 11.396500  5.319760 20.899100
192  2 -0.4683  5.236980 19.376200  0.953248
193  2 -0.5905  0.531065 16.934500 20.221400
194  2 -0.6262  2.792220  3.030650 25.893200
195  2 -0.4311 10.896100 11.731700 21.265100
196  2 -0.5830  0.757570  8.627370 21.881400
197  2 -0.6863  1.927780 17.932600 26.804800
198  2 -0.5764  9.402370 14.909800 13.882500
199  2 -0.5609 14.561400 20.185100 24.561700
200  2 -0.7346  6.187830  4.284800 19.351000
201  2 -0.5335  3.912850  7.509560 19.567500
202  2 -0.2350  5.040980 10.383500 21.016600
203  2 -0.4884  5.346440 13.543500 23.049100
204  2 -0.5236  5.953810 16.738000 20.537000
205  2 -0.6678  5.520480  2.339310 23.403100
206  2 -0.4510  7.806250  8.138330 20.922600
207  2 -0.5592  7.714830  4.780660 23.333600
208  2 -0.4777  4.001220 14.673200 16.119000
209  2 -0.6578 10.798800 12.722000 24.666700
210  2 -0.5421 10.140800 16.527600 24.659800
211  2 -0.2281 12.453000 20.849300 27.543300
212  2 -0.6009  2.135750  0.545444 22.840600
213  2 -0.7026 13.351600  8.616830 22.051200
214  2 -0.4102  7.417680 12.411300 20.509400
215  2 -0.5662  8.201570  1.859310 25.768700
216  2 -0.7684 16.306700  3.386980 22.463900
217  2 -0.4773 15.092100 13.672300 14.669000
218  2 -0.5663 14.365700 15.449100  7.553830
219  2 -0.3984  4.306880  8.530410  7.360610
220  2 -0.5335  0.221455  8.020870 10.796300
221  2 -0.5506  1.275620 13.628500 12.459000
222  2 -0.4406  8.613930 19.243900  9.151190
223  2 -0.5053  1.595910 14.019000  6.312010
224  2 -0.6967  6.335960  3.384020  8.447450
225  2 -0.4976  6.437860  5.936540  5.602380
226  2 -0.3221  4.898850 11.874300 10.738900
227  2 -0.5898  3.674620  8.518380 11.299400
228  2 -0.4541 11.065500 21.330900 14.153800
229  2 -0.2145 12.417500 19.449600 10.186300
230  2 -0.1631  4.316490 13.103600  6.454450
231  2 -0.7507 12.797300  8.797190 10.850300
232  2 -0.5830 11.314600 12.774200  6.137640
233  2 -0.6001  7.012310 16.814400  6.507410
234  2 -0.5358 15.464300 12.167000 10.852700
235  2 -0.7031 13.377200 14.956700 11.631900
236  2 -0.8451 10.427700  3.984930 11.194500
237  2 -0.6599 13.436000  4.439180  8.049310
238  2 -0.3602  0.968696 12.647700 16.403000
239  2 -0.6308  2.349930  3.235040  5.514390
240  2 -0.8286  7.327860  0.560696  5.881280
241  2 -0.5918  1.765370 18.979100  4.903720
242  2 -0.1168  5.464730 11.160400  8.063910
243  2 -0.3676 12.131200  6.762220  4.639350
244  2 -0.4687  9.316330 12.621300  8.936670
245  2 -0.5491 16.655700  9.526690  7.595450
246  2 -0.5059  9.794960 10.254500  1.413040
247  2 -0.6303 10.616700  0.524401  9.127610
248  2 -0.6016  0.289785  6.152390  4.508240
249  2 -0.4215  7.524800  8.901500  8.488070
250  2 -0.3481  9.312230 15.903600  9.206540
251  2 -0.4641  9.893050  9.936380  6.134730
252  2 -0.6363 12.028500 20.793400  5.397360
253  2 -0.8881  4.829580 19.614800  8.142270
254  2 -0.2740  4.100820 16.205300  5.726270
255  2 -0.4862  1.695130  3.958740 13.274800
256  2 -0.6310  8.679750  5.534370  7.863480
257  2 -0.3892  2.278700 10.090500  5.387670
258  2 -0.0782 12.129700 18.771400  7.982420
259  2 -0.4234 14.925500 20.071900 13.531600
260  2 -0.6377  3.355550  2.186690  9.128270
261  2 -0.2409 13.422800  9.848440  4.491770
262  2 -0.5792 14.593000 12.134800  6.352460
263  2 -0.7611 15.235800  1.068620  9.085730
264  2 -0.4254 12.740400  8.636620  7.441490
265  2 -0.8190 15.350000 14.037500  3.508310
266  2 -0.5929  0.561745 16.987000  7.881920
267  2 -0.6108  1.590060  7.067410  0.714487
268  2 -0.3861  6.402250  9.096360  4.830520
269  2 -0.3270  5.384070 14.179700  1.398850
270  2 -0.5145  9.561620 14.245500  0.491552
271  2 -0.1883 10.900500 20.416000  0.391595
272  2 -0.4225  4.960650  2.657770  3.762120
273  2 -0.6075  8.719440  6.881900  3.004390
274  2 -0.4547  4.398430 10.321600  1.469600
275  2 -0.5692 10.958700 16.905300  5.756900
276  2 -0.7814 10.160700 17.369800  2.368310
277  2 -0.3697  6.313420 15.776800  2.372850
278  2 -0.5591  4.591670 20.929400  3.659870
279  2 -0.5692  9.510850  4.455820  0.310449
280  2 -0.6130 11.465400 13.819800  2.658200
281  2 -0.5160  2.194560 11.643500  9.322630
282  2 -0.3777  3.096510 15.870100  3.769460
283  2 -0.5533  9.334400 21.675800  2.697870
284  2 -0.9090 16.155200  0.643453  5.552970
285  2 -0.4947 12.136900  7.965950  1.485970
286  2 -0.6184  1.853690 11.938100  2.693290
287  2 -0.5630  8.723020  2.599440  3.389970
288  2 -0.6972 15.607900  9.272740  1.884490
289  2 -0.5114 15.735000 10.757100 26.827000
290  2 -0.0660  6.176110 16.311000 15.273100
291  2 -0.4332  2.825240 11.398800 14.456600
292  2 -0.6274  2.376470 13.970100 21.787300
293  2 -0.6631  9.506210 16.896900 17.796900
294  2 -0.6215  9.156710  1.337360 22.875600
295  2 -0.4645 16.124600 20.314600 21.517000
296  2 -0.5935  4.144550  6.601300 16.097900
297  2 -0.5296  5.611200  9.610980 16.745600
298  2 -0.6472 12.517600  9.853620 19.051600
299  2 -0.4723  3.971460 19.116000 19.716600
300  2 -0.6116 13.429400 15.779800 24.566500
301  2 -0.4683  2.168320 21.151800 17.320000
302  2 -0.4817  8.394580  1.984360 15.675300
303  2 -0.4756  9.233090 10.543100 26.445400
304  2 -0.6906  9.387450 17.740500 21.566600
305  2 -0.5899  9.775980 12.863500 17.492000
306  2 -0.4792 15.797300 18.635900 16.992000
307  2 -0.5865 12.470600  0.451408 23.212800
308  2 -0.7614  0.961814  4.807460 18.747600
309  2 -0.4543 15.061100  7.451230 20.210000
310  2 -0.5756  3.099640 10.980800 18.383200
311  2 -0.5834 13.020100 19.422300 20.939500
312  2 -0.4750 12.703200 19.970000 16.825100
313  2 -0.6691  0.988598 15.702000 17.167700
314  2  0.0154  5.002920 17.299900 13.174100
315  2 -0.6276 14.309100  1.089460 20.212100
316  2 -0.6175  6.165250 10.731700 13.696300
317  2 -0.0586  7.749060 18.081400 12.457000
318  2 -0.5745  8.938010 14.424900 22.764500
319  2 -0.5246  0.470342 17.327800 13.928600
320  2 -0.4675  6.023270  0.188903 18.334700
321  2 -0.4973  6.960830 13.955400 16.889800
322  2 -0.4872  7.123270  5.244810 14.586700
323  2 -0.2530  5.046500 14.335800 12.723700
324  2 -0.6877 11.960600 16.957500 15.008900
325  2 -0.2349  9.620010 18.987900 12.760200
326  2 -0.5076  4.398040  1.172430 13.577300
327  2 -0.5458  9.787760  7.049660 18.317600
328  2 -0.6944 14.644300 14.548300 21.677900
329  2 -0.7587 14.325700 11.981200 23.748500
330  2 -0.4418 13.488500 16.852600 17.916000
331  2 -0.8693  9.373210 20.183400 18.994800
332  2 -0.5749 12.551200  2.152350 17.554900
333  2 -0.4209 10.202400  5.967760 14.027500
334  2 -0.6169 13.516100  5.589260 18.187600
335  2 -0.2314  4.433540 18.788500 16.381300
336  2 -0.5850  9.316910  2.203990 19.229000
337  2 -0.3418  7.408820 20.230200 15.329700
338  2 -0.0875  4.569170 19.590400 13.050100
339  2 -0.5844 14.694300  5.423820 14.411300
340  2 -0.4815 15.238200 11.214400 17.428700
341  2 -0.4542  3.388830 17.335600 10.641500
342  2 -0.4423 11.360000  3.201210 14.470700
343  2 -0.4760  3.382030  2.785220 16.732500
344  2 -0.7004  1.412400  5.761360  8.494840
345  2 -0.3621  1.874200  7.587420 13.926700
346  2 -0.3159  5.886970 14.537400  8.653440
347  2 -0.4206 11.035000 14.880900 20.095600
348  2 -0.8287  5.390670  5.095610 11.541600
349  2 -0.6284  9.452030 11.708800 12.228200
350  2 -0.6944  9.189830  8.101400 11.029400
351  2 -0.5850  9.111310  9.548640 15.963700
352  2 -0.5348 12.344900 11.962700 10.856700
353  2 -0.7352  1.528160 20.330800  8.066500
354  2 -0.5765  0.827705  0.016667 11.851900
355  2 -0.5952 11.196500  3.292430  5.856640
356  2 -0.5211 15.047800  5.150740 10.699300
357  2 -0.5802 16.616900  7.919520 16.857400
358  2 -0.8338 13.188100  9.666880 14.725500
359  2 -0.6915 15.954100  1.579120 16.539900
360  2 -0.5741 13.942600  1.555260 12.203700

