Generated by pymatgen.io.lammps.data.LammpsData

216  atoms

  2  atom types

0.000000 18.096178  xlo xhi
0.000000 18.140645  ylo yhi
0.000000 18.233787  zlo zhi

Masses

1  208.9804
2   78.9600

Atoms

1    1  0.6536  0.360348 17.847900 18.175900
2    1  0.6978  1.190830 18.625200  6.197160
3    1  0.8941  0.571627 -0.025716 12.360100
4    1  0.8233  0.777995  6.303750 18.516500
5    1  0.8447  0.593593  5.776620  5.813980
6    1  0.7609  0.549982  6.200050 11.848100
7    1  0.7611  0.688580 11.686400  0.223101
8    1  0.7044 18.002700 11.474900  5.598830
9    1  0.8319 -0.079181 12.563400 12.021200
10   1  0.6406  6.892650  0.119846  0.577736
11   1  0.8449  6.497100 17.299000  6.642210
12   1  0.7956  5.940430  0.323977 12.008500
13   1  0.7202  6.048540  6.351370 18.820400
14   1  0.8050  6.365010  5.659730  5.942420
15   1  0.7747  6.716640  6.260510 12.318900
16   1  0.7856  6.593410 12.280800 18.462900
17   1  0.8627  6.279070 12.122500  5.648800
18   1  0.7335  6.978910 12.770000 12.659400
19   1  0.8204 12.758300  0.302673 17.851600
20   1  0.8331 12.283800  0.149436  6.305100
21   1  0.7323 11.748100 17.493600 12.144400
22   1  0.7110 12.301700  6.342660 18.570400
23   1  0.8180 11.954200  6.134450  5.537720
24   1  0.7337 12.197600  5.711830 12.245600
25   1  0.8212 12.326000 12.484100 -0.056778
26   1  0.7670 12.386600 12.005200  5.871340
27   1  0.8059 12.674700 12.314000 11.820300
28   1  0.8554  0.668313  2.711430  3.289660
29   1  0.8309  0.583079  3.029950  9.350490
30   1  0.8425  0.750918  3.142270 15.268500
31   1  0.7349  0.007882  8.539120  3.585940
32   1  0.8744 18.163000  9.218860  8.729760
33   1  0.7862  0.578236  9.422000 15.392400
34   1  0.7188  0.722582 15.298600  3.339510
35   1  0.8307  0.732920 15.457800  8.956240
36   1  0.7163 -0.016925 14.929700 15.159000
37   1  0.7389  6.503010  2.720500  3.399240
38   1  0.7643  6.573800  2.886640  9.124130
39   1  0.8405  6.252120  2.989180 15.710200
40   1  0.6986  6.351610  9.034530  3.223910
41   1  0.8110  6.043730  9.387800  9.308200
42   1  0.7947  6.743590  9.363970 15.091000
43   1  0.7864  6.699670 15.356700  3.132220
44   1  0.8029  6.622510 15.149500  9.352650
45   1  0.7418  5.879710 15.233800 14.927100
46   1  0.7664 12.195000  2.495260  3.086660
47   1  0.7870 12.609400  3.043000  9.470140
48   1  0.7862 11.914600  2.957940 15.180400
49   1  0.7343 12.576300  9.396480  3.462760
50   1  0.8193 12.696900  8.783880  8.980290
51   1  0.6455 12.840400  8.687010 14.962300
52   1  0.8711 12.558700 15.094100  2.801700
53   1  0.5833 13.287100 15.188400  9.134030
54   1  0.7756 11.724200 15.401600 15.980100
55   1  0.7898  3.451170 18.141300  2.918190
56   1  0.7298  3.442890  0.214028  9.290490
57   1  0.6995  3.940660  0.127156 15.239500
58   1  0.7525  3.249290  5.933790  2.797310
59   1  0.8349  3.475950  6.727590  8.439310
60   1  0.7685  3.557110  5.939030 14.471300
61   1  0.7643  2.822360 12.236100  2.964810
62   1  0.8479  3.234060 12.136900  9.340780
63   1  0.8147  3.391190 12.266100 15.562200
64   1  0.6867  9.327270 -0.041624  3.699430
65   1  0.8498  9.464650 18.013400  9.191850
66   1  0.7969  9.784590  0.403881 14.834200
67   1  0.8141  9.503800  6.347840  2.811390
68   1  0.7727  9.593080  6.001260  9.345190
69   1  0.8159  8.909090  5.920870 15.556800
70   1  0.6731  9.234180 11.434200  3.562080
71   1  0.8138  9.227540 12.086300  9.079710
72   1  0.7450  9.595750 11.664500 15.645400
73   1  0.8229 15.500100 -0.436462  3.644670
74   1  0.6822 15.768900 -0.239840 10.067900
75   1  0.7538 15.807900  0.237704 15.641900
76   1  0.7557 15.123400  6.388370  3.078730
77   1  0.8061 15.505500  5.972270  9.187440
78   1  0.8006 15.235700  6.079150 15.765600
79   1  0.8646 15.468300 12.396700  3.195770
80   1  0.6959 15.375600 12.397800  8.783010
81   1  0.7633 15.421800 12.525500 15.639900
82   1  0.8739  3.255960  2.315690 -0.061576
83   1  0.7662  3.184710  3.142770  6.284960
84   1  0.7451  3.417210  3.133210 12.220900
85   1  0.8659  3.905850  9.256250 18.140500
86   1  0.6828  2.839370  9.860820  5.714020
87   1  0.6536  3.257800  9.191580 12.862400
88   1  0.8203  3.540720 15.301400 17.932900
89   1  0.8389  4.038990 15.202400  5.756330
90   1  0.8485  3.513260 15.427000 12.453600
91   1  0.6697  9.139800  2.570250  0.348226
92   1  0.7356  8.791930  2.338890  6.333040
93   1  0.8450  8.963200  2.840820 11.877500
94   1  0.6907  9.566100  8.678680 -0.183090
95   1  0.8193  9.136610  9.074170  6.394050
96   1  0.8105  9.670510  9.350410 11.613800
97   1  0.7389  9.125290 15.460700  0.634847
98   1  0.8386  9.944240 14.992500  5.985980
99   1  0.8322  9.009740 15.154000 11.760400
100  1  0.8929 15.814500  2.895090  0.308857
101  1  0.7592 15.378200  2.620210  6.056180
102  1  0.8019 15.108300  2.621650 12.883900
103  1  0.7193 15.176600  8.614210 -0.095626
104  1  0.7467 15.213000  8.637310  5.708930
105  1  0.7847 15.180000  9.355560 11.747800
106  1  0.7111 16.337600 15.083200  0.585487
107  1  0.7719 15.919200 15.039000  6.411550
108  1  0.6746 14.831800 15.616300 12.513800
109  2 -0.8884  3.438040 -0.173616 18.300400
110  2 -0.7938  3.969190 -0.327209  5.643140
111  2 -0.8686  3.191690 18.367600 11.877300
112  2 -0.6260  3.158400  6.026420 -0.459349
113  2 -0.7947  3.570910  5.721290  5.415630
114  2 -0.7730  3.418480  6.434800 11.758500
115  2 -0.7626  3.710090 11.934900  0.024901
116  2 -0.7130  3.423090 12.700700  6.169410
117  2 -0.6946  3.243950 12.523100 12.680700
118  2 -0.8367  9.948010 17.951500 18.514600
119  2 -0.9047  9.385540 17.938600  6.217960
120  2 -0.8155  9.261360 18.160800 11.970400
121  2 -0.8128  9.320730  5.994000  0.129969
122  2 -0.7267  9.365460  6.118070  5.999600
123  2 -0.8067  9.607530  5.948610 11.867400
124  2 -0.7780  9.452320 12.691000 -0.010205
125  2 -0.8012  9.706020 12.240100  6.472040
126  2 -0.7947  9.425700 12.535700 11.683600
127  2 -0.7981 15.584500  0.057968  0.207829
128  2 -0.7131 15.590900 -0.389003  6.326210
129  2 -0.8535 15.959000  0.030480 12.939500
130  2 -0.7762 15.677500  5.413380 -0.077443
131  2 -0.6919 15.442000  5.795900  6.143990
132  2 -0.6780 15.604900  6.150280 12.143400
133  2 -0.6941 15.101700 12.293800 18.289400
134  2 -0.8585 15.376400 11.954900  5.860460
135  2 -0.8130 15.575700 11.888200 12.017500
136  2 -0.7613  3.210480  3.062450  2.904120
137  2 -0.7260  3.500510  3.543930  8.951850
138  2 -0.7740  3.615570  3.519910 15.612200
139  2 -0.7611  2.963270  9.514000  2.596140
140  2 -0.7575  2.461300  9.418590  8.820610
141  2 -0.7984  3.769810  9.335820 15.569400
142  2 -0.7516  3.624700 14.963900  3.100510
143  2 -0.7094  3.901640 15.101900  9.311730
144  2 -0.7983  2.994300 15.714800 15.018300
145  2 -0.8012  9.138350  3.196210  3.125680
146  2 -0.8200  9.457070  2.902660  9.212970
147  2 -0.8019  9.071920  2.966910 15.061700
148  2 -0.8923  9.212170  8.905050  3.379950
149  2 -0.7870  9.135180  8.877780  8.982960
150  2 -0.7947  9.284720  8.626920 14.940200
151  2 -0.8109  9.715340 14.770700  3.381230
152  2 -0.7837  9.376740 15.335200  9.049840
153  2 -0.5947  8.880750 14.836400 15.242700
154  2 -0.6598 15.328300  2.786200  2.993090
155  2 -0.6937 15.420800  2.914950 10.091500
156  2 -0.7072 15.463800  3.132590 15.384300
157  2 -0.8690 15.188600  8.957070  2.979290
158  2 -0.8037 15.372700  9.033930  8.761010
159  2 -0.7794 15.717000  9.332280 15.645300
160  2 -0.8475 16.103400 15.032500  3.404940
161  2 -0.8509 16.148100 15.151600  9.459150
162  2 -0.7393 14.961400 15.146100 15.325200
163  2 -0.8231  0.176294  0.199603  3.468820
164  2 -0.8237  0.724467 18.508200  9.443730
165  2 -0.7515  0.864154  0.394072 15.020100
166  2 -0.8352  0.516803  5.426680  3.080170
167  2 -0.6941  0.625895  5.940380  8.451330
168  2 -0.6552 18.474500  5.841470 15.171200
169  2 -0.8236 18.111600 10.979400  2.956150
170  2 -0.6839  0.344252 12.729800  9.162770
171  2 -0.7796  0.769159 12.050400 15.194700
172  2 -0.8433  6.277070 -0.032497  3.140520
173  2 -0.8491  6.606870 -0.240080  9.126420
174  2 -0.7641  6.890000  0.093655 14.709300
175  2 -0.8048  6.542990  6.321860  3.618470
176  2 -0.6941  5.922140  6.320490  8.860880
177  2 -0.7263  6.271770  5.584980 15.267600
178  2 -0.7677  6.027760 12.193900  3.193140
179  2 -0.7549  5.711660 11.928100  8.894950
180  2 -0.8058  6.594980 12.179700 15.120900
181  2 -0.6947 12.205100 17.884500  2.570940
182  2 -0.8174 12.486100  0.314234  8.730680
183  2 -0.8642 12.291500  0.204450 14.991800
184  2 -0.8476 12.616800  5.927620  3.162590
185  2 -0.7663 12.874700  6.179230  8.848050
186  2 -0.8042 12.612100  5.854260 15.379800
187  2 -0.7743 12.835500 12.203300  2.992130
188  2 -0.7397 12.219700 12.253900  9.028180
189  2 -0.6521 12.233300 12.610000 15.135500
190  2 -0.7292  0.681405  2.878970 -0.120664
191  2 -0.8533  0.489612  3.148410  6.154520
192  2 -0.7424  0.696492  3.210160 11.995500
193  2 -0.7302  1.207790  8.887630 17.923300
194  2 -0.9116 18.122600  8.776440  6.169710
195  2 -0.6961 18.080500  9.188590 11.802800
196  2 -0.8692  0.848143 14.669800  0.052013
197  2 -0.7311  0.654831 15.228500  6.129780
198  2 -0.7000  0.701064 15.272000 12.439700
199  2 -0.7741  6.030580  3.058810  0.021855
200  2 -0.7783  6.175320  2.020820  6.355500
201  2 -0.8352  6.248300  3.105440 11.851200
202  2 -0.8165  6.911310  8.931840 17.733600
203  2 -0.7433  5.839650  9.613510  6.085210
204  2 -0.7892  6.773950  8.940420 11.840100
205  2 -0.7773  6.278420 15.149500  0.202784
206  2 -0.7921  6.990740 14.745300  6.008140
207  2 -0.8890  6.343850 15.460400 12.213700
208  2 -0.6738 12.715500  3.021300 -0.010406
209  2 -0.6978 12.431100  3.040180  6.028520
210  2 -0.7891 11.988600  2.961360 12.250900
211  2 -0.8129 12.548300  9.266760  0.306805
212  2 -0.8094 11.988600  9.235630  6.444700
213  2 -0.8246 12.256100  9.411600 11.994700
214  2 -0.6902 13.115000 15.354700 18.588500
215  2 -0.7295 12.910600 15.900100  5.518410
216  2 -0.8001 12.152200 15.067600 12.412700

