Generated by pymatgen.io.lammps.data.LammpsData

78  atoms

 2  atom types

0.000000 10.826700  xlo xhi
0.000000 9.376197  ylo yhi
0.000000 17.144600  zlo zhi
-5.413350 0.000000 0.000000  xy xz yz

Masses

1  106.42
2   78.96

Atoms

1   1  1.721170 7.243960  4.314440
2   1  3.692180 2.132240 12.830200
3   1 -1.720690 7.244800  4.314440
4   1  7.134040 2.131400 12.830200
5   1 -0.000487 4.263640  4.314440
6   1  5.413840 5.112560 12.830200
7   1  1.721170 0.993158 10.029300
8   1 -1.721170 5.257640  1.400430
9   1  9.106010 0.994002 10.029300
10  1  1.720690 5.256800  1.400430
11  1  5.412860 7.389040 10.029300
12  1  0.000487 8.237960  1.400430
13  1  7.134520 4.118560 15.744200
14  1  3.692180 8.383040  7.115290
15  1  3.692660 4.119400 15.744200
16  1 -3.692660 8.382200  7.115290
17  1  5.412860 1.138240 15.744200
18  1  0.000487 1.987160  7.115290
19  2  3.576170 4.186100  4.448680
20  2  1.837180 5.190100 12.695900
21  2  5.413350 1.004000  4.448680
22  2  0.000000 8.372190 12.695900
23  2  7.250530 4.186100  4.448680
24  2 -1.837180 5.190100 12.695900
25  2 -1.837180 7.311500 10.163500
26  2 -3.576170 8.315500  1.266190
27  2  0.000000 4.129400 10.163500
28  2  0.000000 2.121400  1.266190
29  2  1.837180 7.311500 10.163500
30  2  3.576170 8.315500  1.266190
31  2  8.989520 1.060700 15.878400
32  2  7.250530 2.064700  6.981050
33  2  5.413350 7.254800 15.878400
34  2  5.413350 5.246800  6.981050
35  2  1.837180 1.060700 15.878400
36  2  3.576170 2.064700  6.981050
37  2  0.000000 8.226680  5.749270
38  2  5.413350 1.149520 11.395300
39  2 -1.711160 5.262860  5.749270
40  2  7.124510 4.113340 11.395300
41  2  1.711160 5.262860  5.749270
42  2  3.702190 4.113340 11.395300
43  2 -0.000000 1.975880 11.464100
44  2 -0.000000 4.274920 17.110200
45  2  3.702190 8.388260 11.464100
46  2  1.711160 7.238740 17.110200
47  2 -3.702190 8.388260 11.464100
48  2 -1.711160 7.238740 17.110200
49  2  5.413350 5.101280  0.034403
50  2  5.413350 7.400320  5.680460
51  2  3.702190 2.137460  0.034403
52  2  1.711160 0.987939  5.680460
53  2  7.124510 2.137460  0.034403
54  2  9.115540 0.987939  5.680460
55  2  3.468300 6.250800  2.857430
56  2  1.945050 3.125400 14.287200
57  2 -1.734150 9.254430  2.857430
58  2  7.147500 0.121766 14.287200
59  2 -1.734150 3.247160  2.857430
60  2  7.147500 6.129030 14.287200
61  2  3.679200 6.129030 14.287200
62  2  1.734150 3.247160  2.857430
63  2  8.881650 3.125400 14.287200
64  2 -3.468300 6.250800  2.857430
65  2  3.679200 0.121766 14.287200
66  2  1.734150 9.254430  2.857430
67  2  3.468300 0.000000  8.572300
68  2 -1.734150 3.003630  8.572300
69  2  3.679200 6.372560  8.572300
70  2 -3.679200 6.372560  8.572300
71  2  7.358400 0.000000  8.572300
72  2  1.734150 3.003630  8.572300
73  2 -0.000000 6.250800  7.367030
74  2  5.413350 3.125400  9.777570
75  2  0.000000 0.000000 13.081900
76  2  0.000000 6.250800 15.492400
77  2  5.413350 3.125400  1.652170
78  2  0.000000 0.000000  4.062700

