Generated by pymatgen.io.lammps.data.LammpsData

320  atoms

  2  atom types

0.000000 24.637781  xlo xhi
0.000000 17.058433  ylo yhi
0.000000 27.370788  zlo zhi

Masses

1  208.9804
2   78.9600

Atoms

1    1  0.7022  1.199220  2.395110  1.094450
2    1  0.7749  1.844970 18.301100 17.245400
3    1  0.7262  4.931890  8.428640  5.355390
4    1  0.7882 -1.652190  7.776960 13.639800
5    1  0.7794  9.973000  4.750640  5.745480
6    1  0.7457  7.415800 13.114900 11.191700
7    1  0.7893 18.371900 15.164300  3.283250
8    1  0.6939  7.584780  6.733360 14.999700
9    1  0.7545  5.037730  6.312380  9.950640
10   1  0.6753  0.549259 15.029900 25.077700
11   1  0.4685  2.386850 14.608900  9.224550
12   1  0.6496  4.287400 16.883100 23.783100
13   1  0.6860 15.577300  5.680030 18.732800
14   1  0.7196 14.969700  4.749910 25.816800
15   1  0.6195 16.067900 14.533100 10.592000
16   1  0.7503 18.132700 13.614100 26.955500
17   1  0.8012  4.741620 17.003400  5.221050
18   1  0.6143  7.153140  8.320920 18.001600
19   1  0.6670  4.299510 16.161500  0.976627
20   1  0.7098  4.663290 13.248700 22.695200
21   1  0.5431 16.338300  5.214810  8.913330
22   1  0.6994 18.654500 18.115900 19.201300
23   1  0.6145 19.392400 11.027200  3.251110
24   1  0.6572 16.404500  9.757010 20.301100
25   1  0.6366 -0.124186 17.118400 12.487900
26   1  0.7384 21.250600  2.990790 23.222700
27   1  0.6527 -1.835280 11.254400 10.881000
28   1  0.7386 -2.307240  8.040880 22.174600
29   1  0.6404 11.647100 15.455500 11.471200
30   1  0.7624 10.924100 17.285700 18.935900
31   1  0.5833  4.073410 17.249800 10.683300
32   1  0.6912  9.974620  9.543790 17.933400
33   1  0.7716  2.229700  5.274210  7.153550
34   1  0.7684 19.353100  4.766380 19.120500
35   1  0.6132 22.213000 13.641200  2.123030
36   1  0.7844 -2.085160 12.725600 14.266400
37   1  0.6753 12.829800  7.313470  9.925960
38   1  0.8227  5.077350  3.554720 16.444500
39   1  0.7032  8.734820  1.652980  3.292840
40   1  0.6797  7.372590 12.290800 15.366100
41   1  0.7567 20.300300  4.697960  8.888780
42   1  0.6898  2.888230  4.576550 21.428600
43   1  0.6692 19.019300 12.541200 12.919400
44   1  0.6152 -1.418420 12.624100 21.415400
45   1  0.7183 11.160300  5.984700 13.937600
46   1  0.5852  7.895300  5.699820 26.325400
47   1  0.7004 11.432700 13.745700 15.123600
48   1  0.5513 10.271100 10.998900 25.423800
49   1  0.8132  1.962640 12.625300  5.554150
50   1  0.8432  7.043850  3.577250 19.412400
51   1  0.6790  3.026770  7.407700  1.058840
52   1  0.7934  2.401680  9.905080 15.426000
53   1  0.5773 18.640100 14.196900  8.833470
54   1  0.6880 11.740400  7.771100 20.778800
55   1  0.7390 22.095600 12.244200  6.744250
56   1  0.8317 -0.065043  6.933620 18.034700
57   1  0.7823  5.541640  3.066460  7.953430
58   1  0.5835  8.031550  2.204220 24.344600
59   1  0.7952  3.051850  5.281600 13.581700
60   1  0.4916  5.873440 12.869600 26.454000
61   1  0.5630 16.780800  1.481700  9.160720
62   1  0.6438 19.013000 15.848200 21.885800
63   1  0.6354 14.143100 12.480100  8.171480
64   1  0.7446 17.676500 11.904400 23.635400
65   1  0.8189  0.463790 10.181200 24.659400
66   1  0.5641 -0.643999  3.753310 14.199000
67   1  0.5489  4.825960  2.175880 26.571900
68   1  0.6333  2.642300 13.022900 12.733900
69   1  0.4467  7.329710  9.563710 26.690600
70   1  0.7079 10.281000  4.380200 16.762500
71   1  0.6711 13.922400 15.380400 27.275700
72   1  0.7850  9.828180 17.948300 15.273400
73   1  0.5546  6.057490  9.060570 23.563400
74   1  0.7069 12.387800  2.110920 13.108900
75   1  0.5965  8.458150 16.026500 26.579000
76   1  0.6732  5.135710 13.853400  7.238440
77   1  0.7229 -0.363512  5.910250 26.639900
78   1  0.7421 20.276100  4.273880 13.440000
79   1  0.6096 21.581400 15.391300 25.474200
80   1  0.6076 -2.307430  1.865360 16.834200
81   1  0.7680  0.415574  2.561890 24.072600
82   1  0.5115  2.227610  1.818120 13.323000
83   1  0.5960  3.845290 10.936700  0.795984
84   1  0.7609  5.034140 15.005500 15.216000
85   1  0.7681 12.506100  7.794450 26.445600
86   1  0.7312 14.320800  2.010200 19.528200
87   1  0.7028 13.557800 11.771400  0.303355
88   1  0.7752 14.881100 10.365100 11.399900
89   1  0.5777 15.617000  2.469440 22.660600
90   1  0.7653  6.237300  3.956660 12.758100
91   1  0.6790  8.616860 10.877700 21.586900
92   1  0.8172  6.459700  9.942960 12.633900
93   1  0.6329 20.041100  5.523390 26.332900
94   1  0.6945 17.709700  1.946710 14.149300
95   1  0.6036 21.147000 11.665200 25.835600
96   1  0.8280 20.044600  8.511890 11.799500
97   1  0.7879  0.918651  8.831190  7.101680
98   1  0.5456  3.838400  4.852470 24.485000
99   1  0.7187 -0.618418 16.358300  4.353500
100  1  0.6502 -1.883830 17.022300 19.182800
101  1  0.6067 11.252400  9.688070  8.194030
102  1  0.6182 15.505200  7.240620 22.557100
103  1  0.7165 13.574300  3.539400  7.798340
104  1  0.5750 10.749200  3.457990 26.388300
105  1  0.7135  9.454040  3.848060 11.162600
106  1  0.7462  5.416300 11.966800 18.531700
107  1  0.7437  8.594200 17.049400 10.283800
108  1  0.8513  7.378260 15.557700 20.105100
109  1  0.6071 17.866800  9.184480  7.461470
110  1  0.7010 17.607900  8.366580 25.058100
111  1  0.6920 20.409900 17.304500  8.390780
112  1  0.6893 16.291700  4.924080 12.630600
113  1  0.6546  0.263080  4.433220 10.878000
114  1  0.6633  1.774210 13.525700  0.701495
115  1  0.7551  1.389450  9.053790 11.314000
116  1  0.7816  2.937820  8.439830 20.998800
117  1  0.7028  9.302880 18.100900  7.082380
118  1  0.8181 11.578100 14.918200 22.109100
119  1  0.6275 16.136100 11.019600  4.739420
120  1  0.6952 14.594100 13.413300 23.165300
121  1  0.7455  3.920400  4.552090  3.739210
122  1  0.7132 11.187400  3.806360 22.523100
123  1  0.6881  4.754440 10.026400  8.905770
124  1  0.6931 12.182600 12.204800 18.944600
125  1  0.6130 -1.572850  2.779280  3.453940
126  1  0.7914 -1.097170  4.602820 20.863800
127  1  0.5693 -0.724891 15.695400  8.810300
128  1  0.5633 16.787900 15.965700 24.141900
129  2 -0.7479  3.991810  3.916440 11.267800
130  2 -0.6438 10.150300  6.799160 17.973900
131  2 -0.6341  6.339060 16.875900  7.901650
132  2 -0.5216  6.342060  2.486920 22.093100
133  2 -0.8174 18.858900  3.967780 10.914000
134  2 -0.5557 19.538500  9.532400 22.981100
135  2 -0.5873 20.237400 11.183900  9.319730
136  2 -0.8806 19.168200 14.122500 24.297700
137  2 -0.5107 19.496700  2.639240  7.227840
138  2 -0.2820  5.017060 16.997600 19.677500
139  2 -0.7615  4.996540 11.631400 11.095000
140  2 -0.6721  3.694870 10.766700 24.402600
141  2 -0.6308 15.337000  7.367440 10.666000
142  2 -0.5806 11.629800 11.317300 21.329800
143  2 -0.4540 14.532300 16.678400  9.173030
144  2 -0.6426 13.798100 15.930300 24.431400
145  2 -0.0052 16.201000  6.300640  3.910030
146  2 -0.3079  1.708280 10.819900 18.634900
147  2 -0.3334 13.988700  5.535530  0.656477
148  2 -0.4117  0.986649  1.640730  9.322690
149  2 -0.2421  8.088590  8.199610  6.897550
150  2 -0.2819 13.480000 14.345800 17.044500
151  2 -0.1344 12.435900 11.612500  3.612200
152  2 -0.7819  8.047970 10.855800 18.576500
153  2 -0.5353  5.132650  5.102090  0.497869
154  2 -0.3417 -0.729351  9.419440 17.450100
155  2 -0.2437 -0.113918  9.907980  4.974880
156  2 -0.6602  5.711420  9.874370 15.216000
157  2 -0.3467  7.752100 12.205300  8.005280
158  2 -0.4974  9.810930  8.983580 15.293300
159  2 -0.1691 20.228700  7.011420  1.884370
160  2 -0.8006  1.870610  3.354930 15.480300
161  2 -0.6369  2.078210  6.454540  4.078230
162  2 -0.6646  2.255550 17.713400 25.801100
163  2 -0.4243  7.055900  8.510260  9.469960
164  2 -0.6681  5.794310 10.835500 21.315700
165  2 -0.2264 -1.582710 15.193200 15.589700
166  2 -0.3214 20.487500 17.964200 25.484600
167  2 -0.6752  0.192592 10.712400  9.189190
168  2 -0.1674 17.043200  7.126050  1.069210
169  2 -0.3809 -1.921130  2.277870 10.456200
170  2 -0.5593  4.190760  1.683800  1.811680
171  2 -0.6815  2.055150  6.867770  9.464830
172  2 -0.5316  5.170140  7.331400 20.616800
173  2 -0.5093 12.561300  2.858540 17.116900
174  2 -0.5933 12.637500 18.211700 21.372100
175  2 -0.4167 15.767900 13.737900  6.130470
176  2 -0.4474 12.930000 10.761400 23.799400
177  2 -0.5579  4.663750  9.197610  2.483900
178  2 -0.6958 -0.853897  4.788430 23.535400
179  2  0.0741  9.537230 11.206200  3.305260
180  2 -0.6193 18.144400 10.863800 25.917300
181  2 -0.2294  7.068460  6.823170  3.563420
182  2 -0.4646  9.964830  3.122720 19.946700
183  2 -0.5146 -1.974920  8.352070 25.103900
184  2 -0.1040 20.363600 10.233400 19.110700
185  2 -0.4063 11.146900  9.628660  0.896196
186  2 -0.5245  3.954950  8.446790 12.405400
187  2 -0.7076  8.008320  2.524880 27.272600
188  2 -0.4749  8.299580 15.914800 13.046500
189  2 -0.1321 16.842000  2.422790  0.173183
190  2 -0.2078 13.242000 10.742400 15.948000
191  2 -0.0271 16.654000 18.302200  4.438270
192  2 -0.5524 10.183600 14.036600 19.638100
193  2  0.1171  8.497470 12.706900  4.031880
194  2 -0.5757  0.275433  4.224700 18.589900
195  2 -0.3945 -1.521880 17.886600  7.053150
196  2 -0.4553 14.547700 14.025600 20.598500
197  2 -0.7001 12.655900  5.350290 24.474800
198  2 -0.7049 14.153300  5.244000 20.886700
199  2 -0.5844 10.831900  2.572560  5.265330
200  2 -0.5127  9.134420 13.498300 23.199800
201  2 -0.1708 -1.841400  6.503860  3.117670
202  2 -0.7566  7.390860  4.313480 16.856200
203  2 -0.0023 10.353400 15.163000  3.312500
204  2 -0.5996  6.782290 13.916400 17.672500
205  2 -0.6383 21.916800  6.019430 11.754400
206  2 -0.0290 20.478800  8.548760 17.493800
207  2 -0.0364 15.262900 17.361900  5.600360
208  2 -0.5511 17.858500  7.403020 20.597900
209  2 -0.6986  0.864001  6.698390 12.853600
210  2 -0.3874  1.082400  9.374220  0.372037
211  2 -0.6539  1.441270 16.804900 14.739400
212  2 -0.4690 -1.016140 16.520300 27.342200
213  2 -0.7876  9.574700  2.951320 14.016300
214  2 -0.3612  7.718550 16.272200  4.653480
215  2 -0.0282 19.650900 13.935300 17.386700
216  2 -0.2917 14.223300 14.435000  2.522710
217  2 -0.5314 21.972800  1.740000 13.973000
218  2 -0.7037  1.921500  4.334010 26.888400
219  2 -0.6348  0.273515 10.737300 13.601600
220  2 -0.4762  0.070665 12.796300  2.664160
221  2 -0.5021  8.549160 17.863900 17.737200
222  2 -0.5849 14.546100  8.224460 24.832000
223  2 -0.4974  9.205260 15.293200 15.983600
224  2 -0.3559  9.777680 13.151600  0.715514
225  2 -0.5385  2.191170 15.576000  2.559000
226  2 -0.5784 16.184600 17.004800 20.802200
227  2 -0.2333 -1.418240  4.460780  7.684960
228  2 -0.6739 15.377700 12.542000 25.430400
229  2 -0.6110 17.436700  4.941190 24.587300
230  2 -0.5356  9.517590 14.587800  9.574930
231  2 -0.2261 20.122200  3.267280  0.518319
232  2 -0.6034 13.534600 13.231300 11.237100
233  2 -0.6707  8.263060  3.908280  7.440180
234  2 -0.5584  8.747420 11.539100 13.105200
235  2 -0.4703  1.318620  6.980500 24.516300
236  2 -0.2797 -2.250850  8.164820  8.358550
237  2 -0.3979 10.417400  4.668330  1.441700
238  2 -0.0556 18.225600 10.900500 16.706600
239  2 -0.4752  1.034250  1.579700  4.365110
240  2 -0.3539 19.652200  7.010510 14.120900
241  2 -0.6993  4.738630  5.934650  7.269380
242  2 -0.5469  0.377081  9.934100 22.025100
243  2 -0.7115  2.810590 14.947800  6.803340
244  2 -0.7774  3.522790 14.132700 25.691900
245  2 -0.6397 15.251500  9.307290  6.981270
246  2 -0.6052 18.101000  3.485710 21.803500
247  2 -0.4225 20.944400 15.974500 11.752000
248  2 -0.2975 19.733600 17.096500 16.657400
249  2 -0.4457  2.980530  2.751510  7.366170
250  2 -0.5760  6.445010  5.559260 23.655600
251  2 -0.6953  4.499280 14.825300 12.232100
252  2 -0.6086  6.310500 15.576700 22.860400
253  2 -0.0752 15.091400  1.744190  1.577080
254  2 -0.7266 21.029500  2.685910 19.836800
255  2 -0.7241 17.034100 12.254700  9.826320
256  2 -0.5361 10.445800 17.144700 25.156700
257  2 -0.2056 11.263600  8.653350  5.254010
258  2 -0.3225  9.037390  6.353940 21.409700
259  2 -0.4771  6.689760 11.206900  1.216400
260  2 -0.2035 -0.656107 13.969300 18.491200
261  2 -0.4887 17.058000 15.817200  0.246779
262  2 -0.5446 19.394400  3.283620 16.256300
263  2 -0.5818 18.652500 16.018500  7.031610
264  2 -0.7557 21.438700 10.094900 13.017800
265  2 -0.5302  5.531250  2.421850  4.892870
266  2 -0.5221  4.017680  3.014740 18.554100
267  2 -0.7064 -0.761378 12.261400 26.137900
268  2 -0.1892 15.785800 16.520900 14.426300
269  2 -0.6249  9.490050  8.201730 24.509100
270  2 -0.1455 14.042800  7.576250 14.626700
271  2  0.0155 14.101100  7.376760  3.518300
272  2 -0.0059 16.629000  9.218600 15.409500
273  2 -0.4398 20.415700 16.181800  1.607020
274  2 -0.4945  1.567830  2.090060 21.575700
275  2 -0.7942  3.034400 10.617900  6.886180
276  2 -0.5624 20.598200 15.348800 20.100800
277  2 -0.4969 11.750700  9.444130 11.179100
278  2 -0.4388 14.748400  3.757400 14.412900
279  2 -0.4928 12.583100 16.584500 14.674500
280  2 -0.7226  5.366070  5.881090 14.411200
281  2 -0.3604 21.729800 10.572000  1.253530
282  2 -0.6174  0.977568  6.608470 21.097800
283  2 -0.6304 -0.622716 14.401900 12.268300
284  2 -0.2866 19.748700 14.797300 14.142300
285  2 -0.1220 11.847800 15.467100  7.331920
286  2 -0.5165 13.949900  6.192000  7.054290
287  2 -0.1129 11.862100 12.527700  5.576640
288  2 -0.3677  9.386610 17.191300 21.842000
289  2 -0.6193 10.952900  1.824720  9.533170
290  2 -0.2466  1.800030 16.102400 19.030100
291  2 -0.5998  8.555180  6.204910 12.024400
292  2 -0.4362  1.532030 14.883100 22.559500
293  2 -0.0971 14.051400  4.102300  4.568440
294  2  0.0537 17.571400 14.137000 17.693900
295  2 -0.3400 21.072100  9.631640  6.015420
296  2 -0.5071 21.629400  6.255540 19.962500
297  2 -0.6100 -0.361709 13.998900  6.158310
298  2 -0.5735 -2.015660 18.035200 22.547300
299  2 -0.0950 20.895000  6.372660  5.527450
300  2 -0.4907 -2.227150  5.854080 15.755400
301  2 -0.6149 12.287900  4.772110 11.971700
302  2 -0.4067 16.126600  2.223220 17.207400
303  2 -0.7124 17.614000 12.653800  1.985730
304  2 -0.5409 13.807600  8.723210 18.621700
305  2 -0.5929  6.979810  1.861540 11.093600
306  2 -0.3094  5.232540 12.872400  4.548320
307  2 -0.5079  3.431500 12.811200 16.102400
308  2 -0.4461  6.510860 14.819500  1.694860
309  2 -0.2071 17.282600  6.374280 15.899000
310  2 -0.2767 15.421600  9.712950  1.306160
311  2 -0.2829 15.977000 13.092400 13.588100
312  2 -0.4221 17.873100 12.454000 20.933100
313  2 -0.4298  2.645510  7.197800 16.475000
314  2 -0.4439 -1.451400  2.679830 26.966000
315  2 -0.4486  5.386090 18.091900 13.603700
316  2 -0.1644 11.417400 17.026000  3.329980
317  2 -0.4563 17.847100  9.414250 12.056700
318  2 -0.1383 18.925700  6.299900  4.782540
319  2 -0.6714 14.697100  2.991090 10.188200
320  2 -0.6701 20.824000 14.037700  5.216590

