Generated by pymatgen.io.lammps.data.LammpsData

48  atoms

 2  atom types

0.000000 11.871713  xlo xhi
0.000000 11.871713  ylo yhi
0.000000 6.997800  zlo zhi

Masses

1  106.42
2   78.96

Atoms

1   1  0.494604  1.631050 0.000000
2   1 11.070000  9.933550 0.000000
3   1  9.933550  0.494604 3.498900
4   1  1.631050 11.070000 3.498900
5   1  5.134140  7.566910 0.000000
6   1  6.430460  3.997690 0.000000
7   1  7.566910  6.430460 3.498900
8   1  3.997690  5.134140 3.498900
9   1  2.677840  4.030110 0.000000
10  1  8.886760  7.534490 0.000000
11  1  7.534490  2.677840 3.498900
12  1  4.030110  8.886760 3.498900
13  1  2.950900  9.965970 0.000000
14  1  8.613700  1.598630 0.000000
15  1  9.965970  8.613700 3.498900
16  1  1.598630  2.950900 3.498900
17  1  1.172610  7.108470 1.749450
18  1 10.392000  4.456130 5.248350
19  1 10.392000  4.456130 1.749450
20  1  1.172610  7.108470 5.248350
21  1  4.456130  1.172610 5.248350
22  1  7.108470 10.392000 1.749450
23  1  7.108470 10.392000 5.248350
24  1  4.456130  1.172610 1.749450
25  2  1.942720  1.069440 1.874740
26  2  9.621880 10.495200 5.123060
27  2  9.621880 10.495200 1.874740
28  2  1.942720  1.069440 5.123060
29  2 10.495200  1.942720 5.373640
30  2  1.069440  9.621880 1.624160
31  2  1.069440  9.621880 5.373640
32  2 10.495200  1.942720 1.624160
33  2  3.686020  7.005290 5.123060
34  2  7.878580  4.559310 1.874740
35  2  7.878580  4.559310 5.123060
36  2  3.686020  7.005290 1.874740
37  2  7.005290  7.878580 1.624160
38  2  4.559310  3.686020 5.373640
39  2  4.559310  3.686020 1.624160
40  2  7.005290  7.878580 5.373640
41  2  7.042320  1.106470 1.749450
42  2  4.522280 10.458100 5.248350
43  2  4.522280 10.458100 1.749450
44  2  7.042320  1.106470 5.248350
45  2 10.458100  7.042320 5.248350
46  2  1.106470  4.522280 1.749450
47  2  1.106470  4.522280 5.248350
48  2 10.458100  7.042320 1.749450

