Generated by pymatgen.io.lammps.data.LammpsData

216  atoms

  2  atom types

0.000000 18.096178  xlo xhi
0.000000 18.140645  ylo yhi
0.000000 18.233787  zlo zhi

Masses

1  208.9804
2   78.9600

Atoms

1    1  0.7457  0.628370 18.051100  0.503976
2    1  0.7632  0.365214 17.663400  6.735760
3    1  0.7619  0.873135 18.236000 12.750900
4    1  0.8145 17.914900  5.992050  0.410223
5    1  0.8396  0.029094  5.734600  6.666380
6    1  0.7818  0.500886  6.114450 12.567500
7    1  0.7620  0.668992 11.740200  0.182654
8    1  0.7348  0.452305 11.628700  6.517100
9    1  0.8721  0.668342 12.246800 12.733600
10   1  0.8556  6.783850 18.148400  1.058420
11   1  0.7212  6.622330  0.450915  6.595840
12   1  0.7100  6.407560  0.003076 12.994200
13   1  0.6467  6.737820  5.999500  0.475382
14   1  0.8300  6.905620  6.416370  6.483180
15   1  0.8599  6.449900  6.137640 12.515000
16   1  0.8403  6.998970 12.300600  1.034870
17   1  0.7526  6.278620 12.004600  6.609440
18   1  0.7643  6.807540 11.914700 12.574000
19   1  0.8164 12.866400 18.066700  0.346783
20   1  0.8497 12.672700 17.780200  6.686980
21   1  0.8042 12.978800  0.045878 12.053600
22   1  0.8076 12.518300  6.067710  0.255234
23   1  0.7652 12.492700  5.759650  5.940920
24   1  0.7844 12.333000  5.851800 12.214800
25   1  0.7877 12.546800 11.917600  0.253164
26   1  0.8405 12.934800 12.400200  5.941120
27   1  0.7293 12.457700 12.692700 12.330300
28   1  0.8093  0.732284  2.815600  2.962540
29   1  0.8386  0.455004  2.819940  9.600790
30   1  0.7601  0.323080  2.412020 15.872000
31   1  0.8539  0.408849  8.749190  3.052490
32   1  0.6994  0.522943  8.889920  9.535070
33   1  0.7893  0.430602  9.316240 15.356700
34   1  0.7194  0.175537 14.526700  3.711110
35   1  0.8554  0.567258 15.111900  9.734920
36   1  0.8426  0.433712 14.731000 15.927000
37   1  0.7429  6.147310  3.041060  3.475540
38   1  0.7257  6.507910  2.640010  9.421890
39   1  0.8000  6.659100  2.936500 15.573400
40   1  0.7366  6.416280  9.182890  2.835780
41   1  0.7853  6.776840  9.282580  9.498850
42   1  0.6982  6.493300  9.094880 15.529800
43   1  0.7858  6.565590 15.268700  3.738430
44   1  0.8360  6.669930 15.062900  9.521630
45   1  0.8099  6.355860 15.173200 15.170600
46   1  0.6904 12.946500  3.099740  3.283950
47   1  0.7750 12.526400  3.095340  9.525380
48   1  0.8683 13.080400  2.685960 15.402500
49   1  0.8297 12.688600  8.785270  3.336890
50   1  0.8136 12.731000  8.162050  9.832690
51   1  0.8065 12.433400  9.031090 15.597500
52   1  0.8275 12.532700 14.769800  2.957080
53   1  0.7805 12.507900 15.026500  9.063240
54   1  0.7143 13.004700 15.118600 14.923700
55   1  0.7800  3.054420 17.721600  3.280890
56   1  0.8298  3.502940 -0.089998  9.131840
57   1  0.6787  3.713310 17.862000 15.700300
58   1  0.7812  3.376040  5.561500  3.436560
59   1  0.6970  4.106330  6.484970  9.581970
60   1  0.7293  2.705930  5.659160 15.537700
61   1  0.8622  3.397210 11.840800  3.536150
62   1  0.8027  3.612730 12.005600  9.490720
63   1  0.8419  3.387040 12.206300 15.740100
64   1  0.7451  9.766160  0.115267  3.284150
65   1  0.7272  9.495570 17.614700  9.376160
66   1  0.8071 10.506900  0.005472 15.042600
67   1  0.8390  9.707130  6.152550  2.845270
68   1  0.8490  9.844630  5.581620  9.027520
69   1  0.7706  9.236940  5.544520 15.464600
70   1  0.7384  9.943630 12.086700  3.505960
71   1  0.7400  9.510510 11.939800  9.538760
72   1  0.8347  9.154650 11.953800 15.402100
73   1  0.8422 15.013300 18.064500  3.332080
74   1  0.8614 15.568600  0.201623  9.389930
75   1  0.7388 15.674400 17.646600 15.388900
76   1  0.7430 15.364200  5.593430  3.822050
77   1  0.8069 15.434000  5.935220  9.166740
78   1  0.8516 15.249600  6.072980 15.342300
79   1  0.7653 15.552800 11.716100  3.241880
80   1  0.8045 15.535600 11.764800  9.709290
81   1  0.7784 15.591800 12.093900 15.575000
82   1  0.8269  3.712450  2.923400 18.212600
83   1  0.7628  3.452680  2.990620  6.283970
84   1  0.7823  3.493700  2.591930 12.052400
85   1  0.7323  3.791400  8.984510  0.086358
86   1  0.7427  3.326410  9.151310  6.596860
87   1  0.7502  3.875520  9.116150 12.903900
88   1  0.8292  3.330090 14.913000  0.501002
89   1  0.7899  3.139490 15.178800  6.320630
90   1  0.8335  3.941460 15.193100 12.316300
91   1  0.7006  9.619270  2.379960  0.158334
92   1  0.8448  9.464480  2.995220  6.211070
93   1  0.8067  9.473090  2.895060 12.049100
94   1  0.8186  9.826570  8.916300  0.132968
95   1  0.8084  9.808590  9.517940  6.238460
96   1  0.7285 10.154700  9.014970 12.579000
97   1  0.7947  9.807000 14.500600  0.562202
98   1  0.7520  9.305460 15.277300  6.685900
99   1  0.7288  9.573020 15.408500 12.496400
100  1  0.6920 15.540500  3.128730  0.599797
101  1  0.8613 15.532400  2.785770  6.520170
102  1  0.7901 15.770200  3.031440 12.723900
103  1  0.7848 15.792100  9.095120  0.388541
104  1  0.8066 15.244500  8.934180  6.618380
105  1  0.7733 15.753900  8.989960 12.470700
106  1  0.8081 15.455700 14.769200 18.327500
107  1  0.7748 15.673000 15.013100  6.767880
108  1  0.8415 15.800400 15.139200 12.387700
109  2 -0.7478  3.762960 18.124000  0.455712
110  2 -0.8151  3.073600 18.112300  6.498250
111  2 -0.8704  3.669410 17.890700 12.205800
112  2 -0.7056  3.023660  5.842220  0.379901
113  2 -0.6928  3.679240  6.335430  6.345180
114  2 -0.7028  3.865450  5.202310 12.843100
115  2 -0.7478  3.569810 11.841300  0.659544
116  2 -0.8239  3.248020 12.040700  6.297880
117  2 -0.7232  3.374340 12.165500 12.531200
118  2 -0.6951  9.212290 17.439300  0.533024
119  2 -0.7942  9.871470  0.222177  6.410460
120  2 -0.8406  9.787640 18.218500 12.469500
121  2 -0.8660  9.730020  6.100130  0.297491
122  2 -0.7417  9.574930  5.987750  6.415730
123  2 -0.7215  9.516460  5.806760 12.342800
124  2 -0.8319  9.277830 11.751100  0.197013
125  2 -0.7784  9.896550 12.424600  6.159950
126  2 -0.8197  9.510150 12.411300 12.676500
127  2 -0.7635 15.371900 17.818100  0.773732
128  2 -0.8154 15.408600 17.812700  6.735710
129  2 -0.8140 15.539100  0.284239 12.332500
130  2 -0.8030 15.270100  6.083790  0.154873
131  2 -0.9116 15.583400  5.336450  6.659110
132  2 -0.7741 15.810100  6.150810 12.478700
133  2 -0.8337 15.686500 11.920100  0.572829
134  2 -0.8175 15.203400 11.719400  6.431970
135  2 -0.7509 15.950100 12.349400 12.290400
136  2 -0.8283  3.448890  2.863850  2.959980
137  2 -0.7447  3.468810  3.072570  9.199220
138  2 -0.7766  3.248580  2.801040 15.631700
139  2 -0.6913  3.290130  9.028810  3.230740
140  2 -0.8512  3.738080  9.327830  9.648160
141  2 -0.8537  3.227140  9.469360 15.246200
142  2 -0.7790  3.505590 14.851400  3.288140
143  2 -0.7292  3.393390 15.043500  9.405250
144  2 -0.8243  3.494910 14.771800 15.964400
145  2 -0.7666  9.452880  3.150000  3.266160
146  2 -0.8158  9.707170  2.854620  9.127920
147  2 -0.6915  9.750540  2.746880 15.223200
148  2 -0.7735  9.929920  8.855020  3.104540
149  2 -0.7057  9.591530  8.894110  9.467340
150  2 -0.8234  9.749800  9.212100 15.439500
151  2 -0.7795  9.665150 15.012300  3.450140
152  2 -0.9009  9.466500 15.044600  9.366760
153  2 -0.6421  9.182260 15.028900 15.604800
154  2 -0.8712 15.516700  2.598400  3.948310
155  2 -0.8049 15.636000  2.857630  9.469630
156  2 -0.8016 15.666600  3.094020 15.734300
157  2 -0.7724 15.713300  8.391610  3.643660
158  2 -0.8501 15.335400  8.809670  9.301850
159  2 -0.7611 15.147800  9.092280 15.533700
160  2 -0.6909 15.454200 14.869900  3.099410
161  2 -0.7353 15.806300 15.218400  9.667470
162  2 -0.8986 15.668200 14.759200 15.259400
163  2 -0.7510  0.438948 -0.130579  3.448100
164  2 -0.7789  0.555225 17.893900  9.717240
165  2 -0.8517  0.485391 17.728600 15.681400
166  2 -0.7455  0.154432  5.682140  3.294940
167  2 -0.7280  0.611156  5.754670  9.361490
168  2 -0.7299 17.981700  6.340070 15.527300
169  2 -0.7859  0.577738 11.493100  3.462760
170  2 -0.7286  0.434710 12.014100  9.863460
171  2 -0.9076  0.515166 12.162500 15.584400
172  2 -0.8095  6.309080  0.093335  3.634440
173  2 -0.8403  6.221560 -0.258717  9.290270
174  2 -0.6796  7.117040 18.252400 15.670700
175  2 -0.7503  6.297860  6.166520  3.646150
176  2 -0.7167  7.072440  6.334470  9.574490
177  2 -0.7670  6.493250  5.773140 15.247600
178  2 -0.7985  6.499530 12.103900  3.485220
179  2 -0.8357  6.592290 12.247800  9.745950
180  2 -0.7175  6.493090 12.289300 15.705300
181  2 -0.7926 12.471800 17.456800  2.779500
182  2 -0.8259 12.852300 17.767100  9.475330
183  2 -0.9193 12.956400 -0.165581 15.443800
184  2 -0.8991 12.436500  5.932720  3.181210
185  2 -0.9427 12.596900  5.726570  9.290520
186  2 -0.6930 12.440300  5.444920 15.300100
187  2 -0.8632 12.665000 11.610700  3.333590
188  2 -0.6935 12.678800 12.007700  9.402670
189  2 -0.7559 12.644900 12.091700 15.359900
190  2 -0.8252  0.539022  2.899690  0.372852
191  2 -0.7057  0.771159  3.020950  6.683120
192  2 -0.7943  0.511993  2.990700 12.389100
193  2 -0.8084  0.476275  8.782190 18.423200
194  2 -0.7396  0.282738  8.752440  6.253760
195  2 -0.7988  0.788407  8.888580 12.487600
196  2 -0.7869  0.361961 14.859500  0.343983
197  2 -0.8719  0.382065 14.784200  6.643780
198  2 -0.7126  0.859654 15.116600 12.592200
199  2 -0.8025  6.537750  2.669280  0.359963
200  2 -0.8163  6.757590  3.186840  6.685740
201  2 -0.7390  6.582920  2.938330 12.695800
202  2 -0.8255  6.787830  9.105640  0.079437
203  2 -0.7705  6.798800  9.285920  6.412790
204  2 -0.8125  6.840970  8.761450 12.313700
205  2 -0.6240  6.279870 15.069000  0.591703
206  2 -0.7631  6.337760 15.014600  6.499110
207  2 -0.8624  6.482080 14.983700 12.532000
208  2 -0.8068 12.684600  2.860900 -0.064334
209  2 -0.7514 12.539900  2.772420  6.184020
210  2 -0.7779 12.574600  3.185030 12.581400
211  2 -0.8055 12.801700  9.363010  0.280490
212  2 -0.7257 12.331100  8.988840  6.305910
213  2 -0.8256 12.989000  8.724080 12.345200
214  2 -0.7994 12.530800 14.846800  0.230318
215  2 -0.8020 12.914300 15.245600  6.022120
216  2 -0.8200 13.031400 15.257300 11.900200

