Generated by pymatgen.io.lammps.data.LammpsData

320  atoms

  2  atom types

0.000000 24.637781  xlo xhi
0.000000 17.058433  ylo yhi
0.000000 27.370788  zlo zhi

Masses

1  208.9804
2   78.9600

Atoms

1    1  0.7225 19.434800  8.322380 12.091500
2    1  0.7313 21.736700 16.014600 21.320900
3    1  0.6146 -0.436110 12.498800  4.881630
4    1  0.6914  2.944300  6.520140 14.276900
5    1  0.5761  7.495460  9.532200  7.603420
6    1  0.6749 16.114700 18.269000 12.121200
7    1  0.6075  3.004130 16.079200  0.434638
8    1  0.6951  2.936350  8.251510  9.966230
9    1  0.5778  6.149720 17.289500 13.387500
10   1  0.5200 17.913200 16.299000 21.755200
11   1  0.7706  2.860340 11.032900 18.195500
12   1  0.7640  2.291330  3.731110 20.740700
13   1  0.6434 11.430400 15.894400 18.799200
14   1  0.4784 11.109100  6.755570 24.577600
15   1  0.6114 15.129700 11.062000 15.378000
16   1  0.5198 18.365500 15.226400 25.322400
17   1  0.6326  4.769670 16.270300 23.067800
18   1  0.5590  8.059380  4.665470 14.530000
19   1  0.5392 21.765500  3.350180 27.334600
20   1  0.6769 -0.494733  5.615330 23.541300
21   1  0.6370 19.477700  4.827660 18.084700
22   1  0.6600 17.153000  5.577440 11.155000
23   1  0.5037 -1.471100  5.697980  1.022550
24   1  0.4376 13.787300 16.918800 25.174000
25   1  0.7564 18.234500  6.773110 15.523000
26   1  0.5254 19.904300 18.037600 24.209600
27   1  0.7778  4.832850 15.523600  9.266320
28   1  0.7806  0.541289  9.088110 27.184800
29   1  0.5797 19.344600 16.266900 11.836100
30   1  0.6508 10.451700 11.450900 11.541300
31   1  0.7445 20.536600 18.137100 18.153600
32   1  0.5752 14.736900 12.446600 18.858400
33   1  0.6883  0.770785 16.766800  4.023980
34   1  0.7016 15.814300  3.685730 24.830700
35   1  0.2458  6.507820  9.285490  3.655960
36   1  0.7458  0.783745 10.077800 14.903700
37   1  0.6815  9.685350 16.357200 11.935000
38   1  0.7314  6.392200 13.098500 15.683200
39   1  0.6059  9.265150  4.435740 11.224600
40   1  0.6309 11.459400 11.367300 16.600900
41   1  0.5270 -1.087250 15.360700 13.441400
42   1  0.7067  1.034940 13.596400 22.020800
43   1  0.7265 21.898500  7.071330 14.516600
44   1  0.6897 21.216000  3.898120  4.671750
45   1  0.6548 13.447500  4.863040 11.295700
46   1  0.3956 11.816700  2.658730 25.963200
47   1  0.7387 18.101700  3.586290  7.851650
48   1  0.6303  5.874620  9.291880  0.129243
49   1  0.7422  5.441950 15.628800  2.776940
50   1  0.6638  6.613470  3.864740 18.239300
51   1  0.6113  2.598900  6.607510  3.222730
52   1  0.5721  7.818870  8.189850 12.041800
53   1  0.7222 15.723100 18.246800 18.593400
54   1  0.4432 11.274700  1.548410 22.777000
55   1  0.5036  0.325183 16.017900 10.327700
56   1  0.6668  2.719960 16.666800 13.176300
57   1  0.4982  5.618730  1.903660 25.899100
58   1  0.3171  8.723010  4.855590 25.364100
59   1  0.5180 -0.760692  8.779040  3.511050
60   1  0.6582  6.006120  7.100070 23.558800
61   1  0.7981  9.564780  7.169190 20.223000
62   1  0.7390 13.045300  5.225570 20.534600
63   1  0.4897  9.357080  9.994090  4.353570
64   1  0.5998 -0.040709  7.458580  6.671490
65   1  0.5596  4.742840  5.783910 26.853300
66   1  0.7652  2.723350  2.413480 10.039600
67   1  0.6997 21.913300 16.805800  2.232300
68   1  0.6098 18.477100 12.891900 18.154200
69   1  0.7018  4.631380 14.246500 20.130700
70   1  0.6812  8.638320 16.303200 16.887700
71   1  0.7394  3.419860  9.385330 21.367500
72   1  0.5783  5.435050  4.605150 12.588100
73   1  0.6611  9.384150 14.975000 26.115300
74   1  0.7108  9.646250  2.633090 19.318500
75   1  0.7166 -0.544498  9.406030 22.500300
76   1  0.5106  4.130660  8.699980  6.511890
77   1  0.5481 20.737000  7.769940  4.683110
78   1  0.8654  4.932620 10.356200 12.527600
79   1  0.5286 21.435800 14.827700 10.489000
80   1  0.7546 -1.242010  2.168870 14.317800
81   1  0.6713 -2.184360  2.966560 22.395000
82   1  0.6860  1.700670 12.955900  9.920570
83   1  0.7298  0.889127 17.563500 23.544700
84   1  0.6461 21.570400 12.322200 12.706000
85   1  0.7744 17.864600  5.214760  2.914220
86   1  0.8440 -0.541609  6.820660 17.382600
87   1  0.7413 11.810600 10.309900 20.495800
88   1  0.6804 18.159500  4.452250 21.317700
89   1  0.6251  2.945960 16.326200 16.870000
90   1  0.8009  5.983780  4.936960  4.345040
91   1  0.5626  2.885030  2.971530 25.666300
92   1  0.8483 11.795400  2.871800 15.795500
93   1  0.7248 21.668100 10.229700 24.832700
94   1  0.8173 -0.941439  2.620110  9.709920
95   1  0.7565  1.696840  1.634990  6.800310
96   1  0.7140 17.860100 12.421300 13.566400
97   1  0.7657 -0.077197  9.707400 11.578700
98   1  0.6015  4.184420  2.624690 15.611400
99   1  0.5845  3.293310  5.141030  6.263860
100  1  0.6307 21.833000 11.938600 20.259500
101  1  0.6222 20.092700 11.009200 16.115900
102  1  0.6783  5.838170  2.861630 21.476700
103  1  0.7947 -0.285342 15.214100 26.569600
104  1  0.5330  8.797750  6.760870  2.062070
105  1  0.7457 19.550900 18.460800 14.416200
106  1  0.6234 14.612000 14.448900 13.209700
107  1  0.5999  2.205120 13.573200 14.953300
108  1  0.5701 12.755600 15.018800 16.042000
109  1  0.5457 21.624500  9.803230  7.560610
110  1  0.7213  5.896150  7.925360 16.202700
111  1  0.6982 15.266300  4.641850 15.497900
112  1  0.6990 13.551900  9.438450 12.763900
113  1  0.7320  0.227021  5.505620 11.389700
114  1  0.8124 21.853500 13.174200  2.352100
115  1  0.7042  2.876330 15.065100  6.299710
116  1  0.7443  2.582560 11.418200  2.577600
117  1  0.8221 21.606700  5.678480  9.447530
118  1  0.5987  9.789950  9.740030 27.415200
119  1  0.8538 21.784700 16.688400  6.081430
120  1  0.6878  8.867030  9.643810 23.624100
121  1  0.5684  5.075510 12.188600  4.600550
122  1  0.7157  3.567230 13.103000 25.289300
123  1  0.6659 10.512700  7.887740  9.475450
124  1  0.8236  8.414260 14.295400 22.125300
125  1  0.6033  0.553173  3.029220  2.529430
126  1  0.6703 -1.592450 13.822500 16.977800
127  1  0.5784 -1.857390 12.787200  7.746710
128  1  0.5827 13.802400 16.298300 21.472200
129  2 -0.6975  0.333759  7.433820 13.209200
130  2 -0.3941  6.781400 11.389900 25.751100
131  2 -0.7121 20.045400 13.762300 14.548200
132  2 -0.3322 16.047300  5.761840 22.611300
133  2 -0.5616 -2.091490  4.432110 11.787000
134  2  0.0186 11.956500 15.271300  7.651550
135  2 -0.5148 17.217700 16.697300 14.141600
136  2 -0.3533  8.897380 13.225200  1.213470
137  2 -0.0462 15.393600  7.349850  7.195260
138  2 -0.5838 21.584900  3.614680 19.022700
139  2  0.0266 13.847600 10.521500  6.773890
140  2 -0.6166 21.033300 13.119800 22.983700
141  2 -0.5404 21.150800  7.014650 17.318700
142  2 -0.4612  5.450420  9.729470 23.025700
143  2 -0.7204 21.916300  6.873070  6.845450
144  2 -0.4646  2.574760 16.414400 20.226500
145  2 -0.6031 21.784400 18.015900 12.253900
146  2 -0.1246 19.392600  7.480370 21.745600
147  2 -0.0082 15.562800 11.351200  3.522440
148  2 -0.6246 -0.568693 10.773600  8.623480
149  2 -0.6189 17.986800  9.785760 14.920500
150  2 -0.6708  5.790000 15.146000 17.216900
151  2 -0.5147  8.245540  8.169710 15.257100
152  2 -0.4815  8.438210 17.231600 20.166000
153  2 -0.6201  2.094880 12.470900  5.628310
154  2 -0.4422 12.871900  2.122370 12.630300
155  2 -0.5404 -0.274773 11.342800  2.106880
156  2 -0.5684  5.338790 11.839500 19.037000
157  2  0.0319 16.140800 15.433300  6.543200
158  2 -0.7208 12.075600 12.903600 19.132600
159  2 -0.7598  0.252254 16.102600  6.566200
160  2 -0.7592  0.808345 18.343200 11.633800
161  2 -0.8921 -0.634883 13.106000 11.265200
162  2 -0.6695 -0.669651  7.680190 10.147400
163  2 -0.4463 12.362300 10.370100  9.940080
164  2 -0.5774  3.383350 17.518800  4.854330
165  2 -0.8058  2.951090 17.073900  8.771610
166  2 -0.7317 16.835000  1.939510 22.250300
167  2 -0.8666  5.521640  6.957200  2.170510
168  2 -0.5921 11.036700 15.481400 22.050900
169  2 -0.1565 11.639400 18.255500  9.579290
170  2 -0.4357  6.763660  3.854070  0.983072
171  2 -0.6685  0.635653  3.737650  7.891370
172  2 -0.6141  5.726880 13.475500 22.632200
173  2 -0.2373  7.227570 13.666100  9.576820
174  2 -0.0533 17.052400  6.895490 26.610900
175  2  0.0138 14.811100 16.321000  2.403490
176  2 -0.3893  9.120100  5.782910 17.480900
177  2 -0.0473 11.261000 14.551600  4.504400
178  2 -0.4110  2.833590  5.460700 18.940700
179  2 -0.0074 15.158200 12.264600 25.609500
180  2 -0.7078 -2.022860  1.820490 24.667300
181  2 -0.6301  1.189400  6.046530 -0.087674
182  2 -0.2749  8.978550 13.218000 19.164400
183  2  0.0114 13.575400 17.124100  5.476990
184  2 -0.6671  3.844290 11.126600 15.004400
185  2 -0.0780 18.045300 14.161700  2.040090
186  2 -0.7429 21.774200  9.558110 13.811200
187  2 -0.7863 20.126300 18.008800 21.030300
188  2 -0.5494  5.636160 14.636200  5.313380
189  2 -0.0013 14.391000 11.222600  1.449130
190  2 -0.5031  5.417760 18.067400 18.519000
191  2 -0.0775 14.458900  4.151530  5.672380
192  2  0.0281 11.887400 18.288800  3.379560
193  2 -0.0091 12.913100 18.554500  6.931780
194  2 -0.7712  2.106520 15.660900 25.142100
195  2 -0.4157  5.057380 11.994000  7.583130
196  2 -0.8208  5.052880  7.853250 12.777000
197  2 -0.2527  9.763440  5.401080  4.052560
198  2 -0.7396  3.464430  1.720680 22.801300
199  2 -0.0363 17.168900 10.533900  8.330350
200  2 -0.4669 15.073500  2.561300  9.779300
201  2 -0.4615  7.023670 17.924800 10.802600
202  2 -0.7520 10.566700  4.806980 21.242000
203  2 -0.8047  5.047200  5.082940 15.876400
204  2 -0.4403  6.919080 12.496500 12.877000
205  2 -0.7070  1.115670  1.716600 26.950200
206  2 -0.7008 16.524300 13.364900 15.750100
207  2 -0.0668 13.855200 14.629300  1.643880
208  2 -0.5693 19.121200 15.404500 18.746100
209  2 -0.6532 -0.246525  5.053130  4.710570
210  2 -0.5325 -0.715004 14.981200 23.418300
211  2 -0.4480 -1.639160 10.609300 17.486200
212  2 -0.0510  9.121390  4.050750  7.346880
213  2 -0.3078 16.338700  1.771240 27.220900
214  2 -0.6415 19.470400 11.528500 11.687000
215  2 -0.3629 13.800700 13.946500 23.441100
216  2 -0.7239 -0.597120 14.948300  2.591840
217  2 -0.4444 -0.022257  5.802950 20.768800
218  2 -0.6434 -1.964900  8.227500  0.947508
219  2 -0.5422  6.983320 10.163300 10.131700
220  2 -0.5576 -1.788970  7.533460 24.701100
221  2 -0.6650  8.539170  2.424730 16.747200
222  2 -0.4841  0.600111  5.301110 15.332700
223  2 -0.6889  4.580330 14.903600 12.744000
224  2  0.0261 13.167300  8.477570  5.678930
225  2 -0.0212  7.501710 17.370300  4.572140
226  2 -0.5191 16.943300  6.258740 17.759700
227  2 -0.6566  2.552650 10.855000 11.531900
228  2  0.0106 16.312400 12.272500  5.795810
229  2 -0.3119 18.222600  8.227640  2.847980
230  2 -0.7906  4.083320  2.012400 12.880700
231  2 -0.0440 13.912100  9.043040 27.349000
232  2 -0.7451 12.580600 12.152600 13.327300
233  2 -0.0157 12.566600  3.430960  3.166830
234  2 -0.6465  8.059080  6.434980  9.881250
235  2 -0.1755 17.452500 13.213900 -0.097180
236  2 -0.6376  5.939400  5.971190  6.652930
237  2 -0.1805 18.424000 17.335200  7.938640
238  2 -0.2521 16.875800 12.543100 23.924100
239  2 -0.5048  4.872680 17.893400  1.450170
240  2 -0.5493 -0.996323 14.197900 19.533400
241  2 -0.5556 12.286800  6.546070 13.104300
242  2 -0.6128 10.239600 13.650000 15.302100
243  2 -0.3516 21.569200  3.417760  7.394710
244  2 -0.3567  8.249170 17.085000  0.471426
245  2 -0.8280  0.938406 16.157200 14.878600
246  2 -0.6960 13.589800  3.085670 22.775700
247  2 -0.5443 21.336600 15.658200  0.100471
248  2 -0.1006 18.837300  8.158100 19.933000
249  2 -0.6342  9.419040  2.438210 13.321700
250  2 -0.6564  4.262350  5.356710 22.958800
251  2 -0.8156  2.045380  8.972590  4.214810
252  2 -0.4110 -0.583383 18.025200 20.802600
253  2 -0.7258  6.828390  1.022450 23.032600
254  2 -0.4830  1.669280  7.398210 23.712700
255  2 -0.5637 18.967300  7.272510  9.716400
256  2 -0.0472  9.548770  2.141010  2.375810
257  2  0.0203  9.471990 16.049700  3.325130
258  2 -0.5408 19.993500  2.109060  1.314400
259  2 -0.5387 10.957000  9.217960  2.458120
260  2 -0.5637  0.911778 11.184200 20.123500
261  2 -0.5596  2.117510 13.500700  0.813037
262  2 -0.2847 12.686800 14.935600 10.990300
263  2 -0.0694 17.202300 12.538600  9.141440
264  2 -0.6429 16.840100  7.003520 13.339800
265  2 -0.6990 17.880700  3.176580 15.460600
266  2 -0.4287 16.521700 10.100000 18.101400
267  2 -0.4729 22.009800 17.568900  8.631190
268  2 -0.0497 18.594400 14.313100  5.229440
269  2  0.0042  9.844440  1.749060  7.082430
270  2 -0.7485 11.251100  8.393140 21.953700
271  2 -0.5296  9.959340  8.177770  7.080830
272  2 -0.3951 20.464500  4.921440 24.147100
273  2 -0.3646 12.821400  5.342350 16.475100
274  2 -0.6390  5.588120 12.140200  1.765690
275  2 -0.5716  3.463670  4.069240  3.408840
276  2  0.0503 17.262400 10.228100 26.346300
277  2 -0.2806 20.377200 11.103700  1.490740
278  2 -0.3784 16.309700 15.628700 10.684000
279  2 -0.4744 14.224700  7.102160 10.306700
280  2 -0.4721 20.483200 14.512500  8.178240
281  2 -0.4375 22.156300  9.071400 20.782500
282  2 -0.5731  1.662210 11.130500 23.464200
283  2 -0.0434 16.028200  7.983720  5.234000
284  2 -0.4283  9.335730  9.547800 19.188200
285  2 -0.1172  9.710360 14.008700  7.274030
286  2 -0.6707 18.990900  5.505860  5.127240
287  2 -0.1529 14.563700  2.835870  0.981438
288  2 -0.4646  9.784890 12.800100 23.908700
289  2 -0.4809 14.724000  1.388030 16.243100
290  2 -0.4196  2.851610 10.481200 26.808600
291  2 -0.3811 12.093100 17.056400  0.327895
292  2 -0.1197 15.570200  9.301410 21.904100
293  2 -0.1015 11.681300 12.410800  7.298270
294  2 -0.6211 15.484600 15.682300 19.354300
295  2  0.0139 16.131400  8.779010 24.753800
296  2 -0.5407  1.778570  8.693410 16.803200
297  2 -0.9246  8.312670  7.850690 25.665900
298  2 -0.2806 18.059700  4.834440 26.975300
299  2  0.0274 16.851100 16.607100  4.664640
300  2 -0.6764  3.179550  5.185820 10.052900
301  2 -0.1316  5.974940  1.690390  6.699670
302  2 -0.4590 13.629500  8.880050 15.647400
303  2  0.0373 14.618000 14.146900  8.279860
304  2 -0.5466  6.763130  6.475120 20.383100
305  2 -0.6694  0.939762 12.015200 16.686800
306  2 -0.3273 -1.751770 12.218800 27.025700
307  2 -0.5568 20.586900  4.830880 13.994500
308  2 -0.4424  2.320690 10.075100  7.618720
309  2 -0.5600 12.485300  2.371680 18.617900
310  2 -0.0816 12.746500  5.495850  7.388580
311  2 -0.0239 13.384000 13.626000  5.605770
312  2 -0.3304 13.087700  6.608850 27.214500
313  2 -0.2497  0.281457  2.378840 17.609600
314  2 -0.3617 19.880800 18.384800  4.988940
315  2 -0.6495 11.472400 17.284400 16.427900
316  2 -0.6992 -1.143080  1.526970  4.353960
317  2 -0.5580 21.677500 16.770300 15.683700
318  2 -0.1812 16.839800  2.618160  3.929420
319  2 -0.6494 21.443700 13.571100  5.060440
320  2 -0.5435 19.164800  3.449720 10.509000

