Generated by pymatgen.io.lammps.data.LammpsData

360  atoms

  2  atom types

0.000000 16.677463  xlo xhi
0.000000 21.699897  ylo yhi
0.000000 28.493178  zlo zhi

Masses

1  208.9804
2   78.9600

Atoms

1    1  0.8033  3.047100 12.517500 20.209300
2    1  0.8313  4.107440 16.269900 20.442900
3    1  0.7559  2.393750  5.440550 20.113100
4    1  0.8372  4.412130  8.969550 20.180300
5    1  0.6952  6.106690 12.943900 20.556500
6    1  0.6944  8.946890 15.792700 20.173800
7    1  0.8093  2.417560 19.719700 20.157800
8    1  0.7694  4.576260  1.809740 19.740700
9    1  0.7625  6.443890  5.520010 20.688700
10   1  0.8179  8.813420  9.461730 20.009600
11   1  0.7245 10.859600 13.081300 19.476100
12   1  0.8264 12.858400 16.136100 20.283500
13   1  0.7387  6.175830 20.152900 20.168700
14   1  0.8074  8.538980  2.491350 20.124800
15   1  0.7575 10.528800  5.854060 20.136900
16   1  0.7461 13.245000  8.772780 19.508600
17   1  0.7679 14.878500 12.463300 19.451800
18   1  0.8509  0.479988 16.178800 20.178100
19   1  0.8077  9.791610 20.072100 19.965100
20   1  0.8295 12.779700  1.375980 20.198400
21   1  0.8395 14.556100  4.617440 20.439000
22   1  0.7860  0.639622  8.855330 20.000600
23   1  0.8167 14.866000 19.792700 19.596600
24   1  0.7201  0.402996  1.606820 19.687400
25   1  0.8490  2.720810 12.708800 26.197700
26   1  0.7893  4.060960 16.677700 26.206300
27   1  0.7598  1.880100  5.315040 26.322300
28   1  0.7098  4.566550  9.163160 26.361200
29   1  0.7928  6.528790 13.135900 26.317200
30   1  0.7906  8.370510 16.743700 26.070500
31   1  0.7796  2.019690 19.887200 26.075700
32   1  0.6514  4.190270  1.691280 26.332000
33   1  0.7836  6.398530  6.067070 26.144500
34   1  0.8678  8.770840  9.575540 25.908100
35   1  0.8211 11.012900 12.840700 25.754200
36   1  0.8217 12.822100 16.097200 25.144700
37   1  0.7906  6.304060 20.097200 26.293500
38   1  0.7191  8.859820  2.096690 26.717100
39   1  0.7541 10.856800  5.910720 26.538400
40   1  0.7624 12.691700  9.149020 25.591400
41   1  0.8429 14.955600 12.791900 25.385200
42   1  0.6023 16.641000 16.199900 25.693300
43   1  0.8940 10.941700 20.869900 25.201400
44   1  0.7229 12.697900  2.480930 26.186400
45   1  0.8265 15.009200  5.702440 26.333900
46   1  0.8081  0.257859  9.538210 26.314400
47   1  0.8482 14.420400 19.738500 26.125600
48   1  0.7291 16.258600  2.099770 26.239700
49   1  0.7652  2.128660 15.579900  0.759374
50   1  0.8979  4.438310 19.216200  1.548670
51   1  0.8567  2.231740  8.236080  1.047800
52   1  0.7755  4.433950 11.859500  0.944206
53   1  0.7013  6.630850 14.990800  1.091130
54   1  0.8174  8.519710 18.993800  1.119120
55   1  0.7346  2.071860  0.021382  0.596809
56   1  0.8665  3.854550  4.566810  1.569750
57   1  0.7536  6.704370  8.966570  1.011360
58   1  0.7746  9.328510 12.465900  1.321530
59   1  0.7340 11.340000 15.818000  0.607011
60   1  0.8985 12.655600 19.335900  1.952270
61   1  0.7299  6.527730  1.007370  0.454279
62   1  0.8318  9.006880  5.362950  1.203970
63   1  0.7337 10.937000  8.371490  0.365238
64   1  0.7839 13.330800 11.974700  0.619165
65   1  0.6619 14.938900 15.246800  0.763432
66   1  0.7340  0.059807 18.842500  1.257690
67   1  0.7571 10.412200  0.682977  1.048570
68   1  0.8122 12.669700  4.670130  1.087290
69   1  0.7896 14.720900  8.260480  0.184130
70   1  0.8915  0.376058 11.770900  0.872215
71   1  0.6720 14.564900  0.877149  0.711493
72   1  0.8604 16.341100  3.810830  1.813600
73   1  0.8188  1.805950 15.409000  7.074870
74   1  0.8508  4.358570 18.791500  6.843670
75   1  0.8214  2.306370  7.733980  6.500170
76   1  0.8023  4.618480 11.445000  6.638050
77   1  0.8005  6.607630 15.625400  6.565660
78   1  0.7458  8.850240 18.716600  7.184430
79   1  0.8378  2.121170  1.002060  6.665060
80   1  0.8150  4.088670  4.047690  6.210270
81   1  0.7491  5.981390  8.151220  6.347000
82   1  0.7709  8.534660 11.500400  7.183520
83   1  0.7847 10.533600 15.124800  6.756430
84   1  0.8015 12.984500 18.908700  6.961400
85   1  0.7082  7.008900  0.940616  6.472250
86   1  0.7992  8.076880  4.669450  6.830500
87   1  0.8725 10.757400  7.621310  7.375320
88   1  0.7935 12.924200 11.701400  7.234260
89   1  0.8244 14.684300 15.457900  6.849220
90   1  0.7302 16.674400 18.850500  7.194800
91   1  0.8405 10.642700  0.753410  6.077320
92   1  0.8193 12.412000  3.908220  6.878220
93   1  0.8404 14.645500  7.639190  7.064760
94   1  0.8103  0.386742 11.650200  7.296570
95   1  0.8249 14.486500  0.873424  7.239370
96   1  0.7641 16.354500  4.158220  7.201780
97   1  0.8090  0.252303 13.883500 10.606400
98   1  0.7974  2.362350 17.730500 10.608500
99   1  0.7119  0.169312  6.299620  9.962870
100  1  0.7676  2.669170 10.770300  9.705660
101  1  0.7883  4.518250 14.299700 10.554700
102  1  0.7524  6.508080 17.690600 10.237300
103  1  0.7722  0.445541 21.407600 10.864300
104  1  0.7814  1.853340  3.028980 10.458800
105  1  0.7549  4.296710  6.663010 10.112400
106  1  0.6284  6.540780 10.342500 10.085700
107  1  0.8237  8.353360 14.117000 10.237000
108  1  0.7802 10.567400 17.696200 10.270900
109  1  0.8257  4.519900 21.611400 10.090900
110  1  0.7426  6.432660  3.233730 10.489000
111  1  0.6949  8.809190  6.847570 10.963600
112  1  0.7966 11.021400 10.451100 10.502100
113  1  0.7850 12.498000 14.049500 10.368100
114  1  0.8201 15.184800 17.616300 10.798200
115  1  0.7650  8.391570 21.610400 10.061200
116  1  0.7667 10.482700  3.448900 10.171700
117  1  0.7601 12.497900  6.573370 11.128400
118  1  0.7267 14.947300 10.670500 10.684600
119  1  0.8469 13.040000 21.341700 10.458000
120  1  0.7452 14.578300  3.500340 10.485500
121  1  0.6949 16.666200 13.388200 16.367400
122  1  0.8065  2.859150 17.920900 16.642500
123  1  0.7671  0.767166  6.812610 17.013100
124  1  0.8228  2.798370 10.438400 16.486800
125  1  0.7362  4.515260 13.608000 16.890500
126  1  0.8682  6.733140 17.626200 16.387900
127  1  0.7731  0.536661 20.531800 16.504800
128  1  0.6098  2.320040  3.319180 16.511300
129  1  0.8047  4.499830  6.824410 16.454300
130  1  0.7770  6.586530 10.159700 16.510900
131  1  0.8058  8.818450 14.450200 16.748100
132  1  0.7860 10.960000 17.435300 16.179900
133  1  0.7237  5.016440  0.107803 16.615800
134  1  0.8775  6.411410  3.705660 16.768600
135  1  0.8043  8.820600  6.718310 16.338400
136  1  0.8552 10.702500 10.544700 16.521300
137  1  0.7778 13.158800 13.813800 17.348700
138  1  0.7905 15.353200 17.108000 16.768800
139  1  0.8063  8.885090 21.001600 16.708200
140  1  0.8183 10.652200  2.993720 17.107600
141  1  0.8113 12.632100  6.544280 15.991100
142  1  0.6922 15.053600 10.454500 17.031400
143  1  0.7771 12.871000 20.591300 16.587600
144  1  0.8315 14.820400  2.844060 16.495300
145  2 -0.8538  0.172327 13.532600 27.741400
146  2 -0.8671  2.519010 17.877300 28.116500
147  2 -0.8162  0.208387  6.852820 28.107900
148  2 -0.9206  2.274650 10.416600 27.737300
149  2 -0.8772  3.946830 14.315500 27.779100
150  2 -0.7794  6.354530 17.541400 28.206600
151  2 -0.8907 16.564000 20.612700 27.473100
152  2 -0.7850  2.248120  2.964330 28.240900
153  2 -0.7528  4.118330  6.557020 28.271900
154  2 -0.8530  6.798230 11.076700 27.953300
155  2 -0.8240  8.941990 14.408600 27.884800
156  2 -0.5760 11.062600 17.674400 26.750300
157  2 -0.9031  4.215170 20.736700 27.734000
158  2 -0.6416  6.971770  4.201250 28.141100
159  2 -0.8690  8.456550  7.607700 27.523600
160  2 -0.8804 10.731200 10.801200 27.465400
161  2 -0.9157 13.459400 14.189100 27.236400
162  2 -0.7157 13.593100 18.215000 28.222100
163  2 -0.8394  8.576490 21.124000 27.689600
164  2 -0.9038 10.667300  3.557300 28.007500
165  2 -1.0308 12.967500  6.910440 27.406000
166  2 -0.9422 14.878000 10.752400 27.580200
167  2 -0.8159 12.279000 21.359300 27.246100
168  2 -0.9863 14.665200  3.432410 28.013700
169  2 -0.4075  2.004000 14.831600 24.532700
170  2 -0.3573  4.503950 18.714000 24.313600
171  2 -0.3286  1.927410  8.177600 24.646000
172  2 -0.4289  5.202300 11.453800 24.859700
173  2 -0.3743  6.220560 15.399900 24.531700
174  2 -0.3171  8.212220 19.205900 24.303700
175  2 -0.3125  1.640220  1.115440 24.583100
176  2 -0.3450  4.094210  4.621760 24.494700
177  2 -0.3801  6.603130  8.370760 24.410100
178  2 -0.3303  9.019900 11.724500 24.409100
179  2 -0.4095 10.370800 15.309400 24.251400
180  2 -0.3616 12.915600 18.508700 24.220700
181  2 -0.3788  7.038930  0.622107 24.694200
182  2 -0.3129  8.386900  5.160510 24.333100
183  2 -0.3151 10.902800  8.115700 24.098100
184  2 -0.3811 12.828300 11.703200 23.974500
185  2 -0.4280 14.984100 14.735400 23.690100
186  2 -0.3518 16.332400 19.229900 24.263900
187  2 -0.3600 10.617600  1.429080 24.041000
188  2 -0.3252 12.913200  4.685540 24.341200
189  2 -0.3358 15.119500  7.848710 24.320900
190  2 -0.2854  1.048020 11.419100 24.361200
191  2 -0.3068 14.149200  0.570755 24.355400
192  2 -0.4136 16.432700  4.193230 24.668200
193  2 -0.2947  0.594954 13.467300 21.382200
194  2 -0.4476  2.359690 17.576700 21.991300
195  2 -0.3832  0.046135  6.197070 21.423300
196  2 -0.3885  2.738910 10.160000 21.635100
197  2 -0.4100  4.269890 14.033200 22.193300
198  2 -0.3764  6.427360 17.261300 21.548600
199  2 -0.3314  0.476546 21.319100 21.548000
200  2 -0.2655  2.394190  3.161500 21.873100
201  2 -0.3921  3.765820  6.920580 21.939800
202  2 -0.3414  7.262740 10.175700 21.741400
203  2 -0.3057  8.395250 13.518500 22.128200
204  2 -0.3147 10.718400 17.646900 21.872200
205  2 -0.4117  4.256250 21.397000 21.583900
206  2 -0.3152  6.567970  2.719600 22.151700
207  2 -0.3063  9.039860  7.229250 21.997800
208  2 -0.2517 10.987300 10.511900 21.473100
209  2 -0.4724 12.818900 13.543300 21.222300
210  2 -0.4668 14.694700 17.644900 21.242400
211  2 -0.3155  8.566210 21.517300 21.929500
212  2 -0.3993 10.741500  3.530300 21.650900
213  2 -0.3852 12.669400  6.925610 21.485200
214  2 -0.2670 15.450400 10.247700 21.737000
215  2 -0.3530 12.611000 20.871100 21.421100
216  2 -0.3330 14.933500  2.549670 21.940200
217  2 -0.8293  2.734520 12.874600  8.443020
218  2 -0.8033  3.942630 16.555900  8.530140
219  2 -0.7802  2.399480  4.896800  8.176750
220  2 -0.9439  4.086310  9.169050  7.996110
221  2 -0.8068  6.596940 13.524700  8.420040
222  2 -0.9063  8.535270 16.364500  8.655690
223  2 -0.7702  2.714250 20.284400  8.506480
224  2 -0.8044  3.669400  1.995870  8.848090
225  2 -0.8250  5.948630  5.818750  8.239520
226  2 -0.8362  8.943950  9.147090  8.960460
227  2 -0.8625 10.345900 12.647800  8.733260
228  2 -0.8263 12.515200 16.342100  8.644900
229  2 -0.8537  6.344490 19.798800  8.521050
230  2 -0.8940  8.389420  2.391230  8.662380
231  2 -0.8865 10.422400  5.429090  8.293010
232  2 -0.8395 12.832700  9.272650  8.801610
233  2 -0.8864 14.749700 13.078500  8.682720
234  2 -0.8851  0.072037 16.102300  9.267000
235  2 -0.7760 10.882900 20.150500  8.773730
236  2 -0.8731 12.243300  1.861120  8.465720
237  2 -0.9248 14.357200  5.840180  9.138560
238  2 -0.7786  0.157697  9.189440  8.307540
239  2 -0.8642 15.129400 20.009600  9.266030
240  2 -0.8983 16.266100  1.781810  8.819400
241  2 -0.3233  0.125137 13.999400  5.471260
242  2 -0.3774  1.892800 17.960800  5.339300
243  2 -0.4100  0.102919  6.391190  5.625100
244  2 -0.3525  2.421580 11.184400  5.546560
245  2 -0.2416  4.139930 14.517700  5.226710
246  2 -0.3782  6.187010 18.358600  5.084560
247  2 -0.3295 16.467900  0.009103  5.555910
248  2 -0.3929  1.475260  3.014410  5.231260
249  2 -0.4382  3.462630  6.135250  4.760010
250  2 -0.4154  6.951760 10.286500  4.945120
251  2 -0.4381  8.563280 13.861000  5.296800
252  2 -0.3505 10.918500 18.065900  5.207070
253  2 -0.3061  4.631950 21.435300  5.054990
254  2 -0.4402  6.501730  3.565760  4.869410
255  2 -0.3512  8.839770  7.222280  5.429940
256  2 -0.2553 10.797300 10.537600  5.358000
257  2 -0.3791 13.215400 13.924200  5.421130
258  2 -0.5073 14.683500 17.763100  5.547620
259  2 -0.4572  8.652920 20.783700  5.330110
260  2 -0.3897 10.491100  3.064340  4.846870
261  2 -0.3650 12.777900  6.270320  5.589040
262  2 -0.2521 15.369800 10.484700  5.459490
263  2 -0.4781 12.613700 21.123400  5.371890
264  2 -0.4622 14.739400  3.123470  5.589090
265  2 -0.3292  2.444780 12.744300  2.476540
266  2 -0.2818  3.962930 16.395500  2.978230
267  2 -0.3102  1.503810  5.767110  2.678010
268  2 -0.4857  4.137510  9.430790  2.498290
269  2 -0.3736  5.986780 12.924500  2.957570
270  2 -0.3762  9.291710 16.723200  2.764390
271  2 -0.3724  2.448070 20.362700  2.853440
272  2 -0.3893  4.150660  1.730640  2.168510
273  2 -0.3192  6.418800  5.873670  2.566940
274  2 -0.3216  9.149980  9.430400  2.547040
275  2 -0.4121 11.405600 13.681600  2.495970
276  2 -0.3481 13.187300 16.936900  2.871340
277  2 -0.4486  6.711800 20.504100  2.184820
278  2 -0.4347  8.568430  2.332850  1.893500
279  2 -0.4334 11.221900  6.608330  2.359570
280  2 -0.3196 13.226800  9.684380  2.331290
281  2 -0.2421 15.296200 12.705300  2.888830
282  2 -0.2961  0.315753 16.163000  3.193490
283  2 -0.4671 10.407500 20.212700  2.691650
284  2 -0.3402 12.804400  2.292540  3.023220
285  2 -0.3356 14.821100  5.696750  2.551820
286  2 -0.3235  0.342225  9.760980  2.485100
287  2 -0.4776 15.032200 20.373600  2.489460
288  2 -0.2881  0.186840  1.419480  2.899870
289  2 -0.7974  2.623520 15.144300 18.678800
290  2 -0.7920  4.868510 18.265900 18.349600
291  2 -0.9162  2.644470  8.278750 18.073700
292  2 -0.9414  4.698520 11.261300 18.359100
293  2 -0.8233  6.824770 15.289800 17.916600
294  2 -0.8603  8.471520 18.867100 18.054000
295  2 -0.8956  2.713040 21.666400 18.430600
296  2 -0.9211  4.708450  4.291960 18.634700
297  2 -0.7787  6.194690  7.706570 18.330400
298  2 -0.8452  8.712970 11.441400 18.386500
299  2 -0.9475 11.089400 15.421600 18.043700
300  2 -0.7569 12.304300 18.822500 18.476300
301  2 -0.8766  6.807500  1.343680 18.461000
302  2 -0.8630  8.430340  4.685310 18.404500
303  2 -0.8532 10.960900  7.957420 18.050600
304  2 -0.9781 12.847800 11.529500 18.200000
305  2 -0.9253 15.049400 15.014400 18.597800
306  2 -0.8865  0.764399 18.238700 18.151400
307  2 -0.8475 10.701500  0.825616 18.647400
308  2 -0.8221 13.162300  3.878860 18.384100
309  2 -0.7716 15.087400  7.517890 17.625100
310  2 -0.8423  0.757302 11.271700 18.745500
311  2 -0.8737 14.790900  0.104650 18.289300
312  2 -0.8620  0.305208  4.316300 18.440000
313  2 -0.3381  2.984380 12.945700 14.760000
314  2 -0.2126  4.876260 16.455200 14.258800
315  2 -0.1891  2.194000  6.006800 14.107700
316  2 -0.3767  4.097100  8.807650 14.877100
317  2 -0.2590  6.545030 13.258400 14.677700
318  2 -0.3704  8.609180 16.402100 14.704000
319  2 -0.3827  2.923930 20.779500 15.058200
320  2 -0.3394  4.746800  2.864210 14.674400
321  2 -0.4639  6.747160  5.726060 15.075400
322  2 -0.3974  8.585050  9.282240 14.853100
323  2 -0.3513 10.734800 12.893100 15.258200
324  2 -0.3034 13.216800 16.292000 14.662600
325  2 -0.3186  6.589140 20.163300 14.736900
326  2 -0.3329  8.267750  1.973480 15.545500
327  2 -0.4165 10.741100  5.056130 14.892700
328  2 -0.3358 12.772900  9.541580 14.961900
329  2 -0.4103 14.601300 12.494700 15.024800
330  2 -0.3640  0.526707 15.930300 15.163200
331  2 -0.3837 10.565900 20.288900 14.882400
332  2 -0.3336 12.363000  2.004570 15.372000
333  2 -0.2436 15.176800  5.259060 14.862900
334  2 -0.3003  0.314492  9.502040 15.012000
335  2 -0.5024 15.357300 19.192100 15.241500
336  2 -0.3862 16.427100  1.395040 14.951200
337  2 -0.3614  2.017060 15.169600 12.168700
338  2 -0.3364  4.502640 18.943400 12.145200
339  2 -0.2163  2.148680  8.172320 11.884000
340  2 -0.4093  4.198290 11.709100 11.729000
341  2 -0.4303  6.877120 15.383500 11.941300
342  2 -0.2464  8.782750 19.566200 12.261500
343  2 -0.3405  2.870760  0.852148 12.243000
344  2 -0.3403  3.931820  4.934820 12.161200
345  2 -0.2806  6.236900  8.015560 12.516900
346  2 -0.2591  8.612310 11.183700 12.382200
347  2 -0.3109 10.723000 15.339800 12.168600
348  2 -0.4039 12.390800 19.238100 11.782000
349  2 -0.4023  6.538320  0.678194 11.755600
350  2 -0.3403  8.619850  3.832630 12.291800
351  2 -0.4998 10.670000  7.600830 12.631200
352  2 -0.3889 12.345600 11.912800 12.130500
353  2 -0.3148 14.869200 14.960500 12.273800
354  2 -0.4704  0.707785 18.883100 12.115300
355  2 -0.2273 10.678900  0.899696 11.939500
356  2 -0.4013 13.088400  4.297910 12.424500
357  2 -0.3002 15.451400  7.564270 11.954400
358  2 -0.3734  0.726176 11.414000 11.994300
359  2 -0.2628 14.125900  0.850878 12.643200
360  2 -0.4387 16.580600  3.839360 12.136700

