Generated by pymatgen.io.lammps.data.LammpsData

320  atoms

  2  atom types

0.000000 24.637781  xlo xhi
0.000000 17.058433  ylo yhi
0.000000 27.370788  zlo zhi

Masses

1  208.9804
2   78.9600

Atoms

1    1  0.4052 -2.278500 18.022000  1.725390
2    1  0.7828  0.196676 17.548100 16.140100
3    1  0.7429  1.636290  9.610600  2.818940
4    1  0.6764 -1.997100  8.506960 14.503800
5    1  0.7516 10.688600  7.209060  3.016970
6    1  0.6746  7.459860 15.770900 16.383000
7    1  0.5465 16.267100 14.415600  4.887090
8    1  0.7901  6.577760  9.285680 17.800600
9    1  0.6722  1.442440  6.135800  9.451370
10   1  0.6763  1.597320  1.341200 26.415700
11   1  0.7439  0.690647 13.568800  8.055650
12   1  0.7515  4.435880 17.227200 24.509600
13   1  0.7071 15.433300  5.699570 14.443100
14   1  0.8031 17.396600  5.861400 26.251200
15   1  0.7188 15.623800 14.811200 12.226100
16   1  0.6997 16.537300 14.193000  0.859501
17   1  0.7018  3.212980 17.299000  4.411640
18   1  0.7411  4.227530  5.660120 18.622400
19   1  0.6624  4.404530 13.954500  0.269691
20   1  0.7765  3.892060 13.243900 18.055300
21   1  0.7789 14.664100  4.178680  8.348460
22   1  0.7462 16.337300  3.786230 19.470200
23   1  0.6362 19.117400 12.468500  3.419390
24   1  0.5891 15.092400 13.440800 22.137500
25   1  0.6485 21.702900  2.372810 13.570700
26   1  0.6278 20.998500 17.013200 23.645800
27   1  0.7543 -1.880670 11.464100 10.140000
28   1  0.7748 -0.643070 11.360900 23.375500
29   1  0.5826 12.264500  1.776820 10.752700
30   1  0.5651  9.234600  1.668660 20.697600
31   1  0.6031  7.634850 12.326100  9.561310
32   1  0.5580 12.688800  8.164470 21.886600
33   1  0.7020 -0.457616  5.227740  4.040680
34   1  0.7422 18.088700  7.183690 19.264100
35   1  0.5386 22.205200 14.894600  2.886780
36   1  0.8132 -0.838253 12.377400 15.359100
37   1  0.6914 11.782700  7.928080  7.802570
38   1  0.6958  7.326610  2.967310 17.781100
39   1  0.8482 10.301400 16.932000  3.373730
40   1  0.6903  8.958680 12.607200 17.616900
41   1  0.6205 21.051100  6.004790  8.533530
42   1  0.7052  0.019162  7.174320 22.741300
43   1  0.7242 -2.151460 14.287100 12.181400
44   1  0.6299 -0.079555 15.653000 22.667200
45   1  0.6361 10.879000  5.486000 13.303700
46   1  0.6968  7.416450  6.677480 24.645800
47   1  0.7620  8.913380 13.407700 13.190800
48   1  0.5396  8.168830 13.605400 24.547200
49   1  0.8299  1.899120 13.877200  4.412090
50   1  0.7418  5.746250  2.610090 21.461100
51   1  0.7521  4.110930  7.413430  5.055340
52   1  0.6823  2.493300  8.972280 17.415700
53   1  0.5620 17.184200 13.742600  8.345490
54   1  0.5484 12.617800  4.642090 19.686300
55   1  0.6573 19.322000  9.635130  7.603650
56   1  0.7373 -2.210960  8.664010 18.906300
57   1  0.7499  3.679230 17.005400  7.794910
58   1  0.5904  9.708010  2.289810 25.622200
59   1  0.5551  1.818270  7.642610 13.871200
60   1  0.6220  4.165030 13.172500 23.860100
61   1  0.7486 15.797500 17.549000  7.656120
62   1  0.6244 17.609300 17.529600 23.537700
63   1  0.6477 12.185300 13.236600  9.657690
64   1  0.5116 15.441200  9.053690 22.811400
65   1  0.5902  1.479980  7.023520 26.344900
66   1  0.5628 -0.891882  5.084090 12.361900
67   1  0.8436  5.426350  3.016010  3.658590
68   1  0.7919  0.819338 16.183400 11.957600
69   1  0.7360  9.736460  9.703990 26.804100
70   1  0.6375 10.426900  4.846640 16.968100
71   1  0.6962 12.975600 17.533400 26.696500
72   1  0.6422 12.554000 17.015900 13.552000
73   1  0.7009  5.189050  9.650940 25.324400
74   1  0.6796  8.340380  2.767120 11.668400
75   1  0.6533  7.079060 16.254400  0.140535
76   1  0.7113  3.828420 13.558800 10.511600
77   1  0.7498 22.130900  7.545380  1.650100
78   1  0.7538 19.588800  6.973690 12.631400
79   1  0.7685 18.853900 17.651200 27.292500
80   1  0.6242 20.087900 15.787800 14.961300
81   1  0.5043  0.281724  4.204300  0.480752
82   1  0.8568  4.576060  2.153250 11.645800
83   1  0.7013  1.057690 11.635200 26.770700
84   1  0.7130  3.248450 15.106700 14.362800
85   1  0.6715 13.222200  7.446000 25.841400
86   1  0.5704 12.634900  2.823440 15.678500
87   1  0.7365 16.418700 10.013000 27.031000
88   1  0.8226 14.131200 10.527300 13.053200
89   1  0.7982 13.499000  3.886660 24.452600
90   1  0.7280  6.346560 15.988200 11.918900
91   1  0.6622  6.626560 11.752200 21.752900
92   1  0.7447  5.165840  9.551510 14.004000
93   1  0.5843 21.682200  3.778950 26.810300
94   1  0.7605 17.914300  3.088220 14.075300
95   1  0.7492 21.737500 11.620400  1.001950
96   1  0.7269 18.221800 10.800200 12.386200
97   1  0.7133  0.042461  8.891420  7.079300
98   1  0.6702  2.963900  4.549930 24.309400
99   1  0.7313 -1.110430 17.640200  6.709530
100  1  0.6864  0.009130 16.632000 20.135400
101  1  0.6611  9.950450  9.896910 10.019400
102  1  0.5217 14.788400  7.563720 19.577500
103  1  0.6332 12.386300 16.642800  7.301150
104  1  0.4692 10.875500 15.529300 24.781500
105  1  0.7909  8.030320  6.570040 10.348200
106  1  0.7515  5.138940  8.264460 21.809000
107  1  0.8026  7.921490 16.588500  6.831040
108  1  0.6653  6.426450 15.131700 20.612400
109  1  0.7698 16.215100  7.103040 10.317300
110  1  0.7889 20.431300 10.105600 23.328700
111  1  0.8545 21.228400 17.474500 10.219500
112  1  0.7362 15.883500 16.994100 15.630800
113  1  0.6194 -1.249700  3.468050  8.866350
114  1  0.5468 -1.279060 15.337000 27.262300
115  1  0.7103  3.702260  9.471700  9.833800
116  1  0.8369  1.967550 10.632000 21.100400
117  1  0.7845 10.613800  3.674720  7.052410
118  1  0.7611 13.955500 17.273200 21.651600
119  1  0.6053 15.490900 10.765600  6.608110
120  1  0.5146 13.869200 13.324700 25.451700
121  1  0.8565  6.173990  4.003480  7.441620
122  1  0.6582  8.561780  5.593580 21.199800
123  1  0.5958  6.252910 11.241600  7.058740
124  1  0.6746 12.031200 14.694000 19.624400
125  1  0.7660 20.353200  3.027980  4.074840
126  1  0.7147 19.913400  5.166450 22.319700
127  1  0.7001 21.390200 13.946300  6.982350
128  1  0.5734 17.621000 14.365800 24.568100
129  2 -0.3654  5.571150  4.321510 11.149800
130  2 -0.7260  5.556870  5.368390 21.815700
131  2 -0.5598  5.870220 14.695700  8.756660
132  2 -0.8838  5.849950 14.948200 25.426400
133  2 -0.4952 17.638800  4.781960 12.028100
134  2 -0.4670 20.919500  6.853320 26.228500
135  2 -0.6287 20.151800 12.487400  9.249420
136  2 -0.5451 16.326200 16.695200 27.203800
137  2 -0.7452 21.410900  4.084930 10.356500
138  2 -0.4314  2.221400  1.905250 23.458400
139  2 -0.6073  0.616559 13.675100 12.583700
140  2 -0.6568  1.139980 13.023400 22.608100
141  2 -0.4334 13.730400  6.834090 11.856700
142  2 -0.7205 14.850000  6.222130 24.486900
143  2 -0.6273 14.337000 16.025700 10.199000
144  2 -0.8170 14.475400 15.594200 24.148800
145  2 -0.1722 17.724700  6.333770  6.826300
146  2 -0.5137  1.070450  7.968440 20.341400
147  2 -0.0408 16.532700  3.808920  1.796300
148  2 -0.4791  2.546660 17.674700 14.260200
149  2 -0.3248  9.094450  9.164930  2.377560
150  2 -0.2566 12.268100 14.019600 16.059300
151  2 -0.5267  6.613180 11.527700 26.872300
152  2 -0.1630  9.601160 10.324800 20.315500
153  2 -0.5385  3.091980  9.809840  0.123556
154  2 -0.5214 -0.977763 10.125000 16.958900
155  2 -0.5067 22.105100 12.001000  3.818140
156  2 -0.7359  4.287910  9.005940 19.293200
157  2 -0.5147  3.487340 10.679400  6.926620
158  2 -0.0824 12.683200  9.839220 17.481900
159  2 -0.0910 11.447400  3.928280  2.443570
160  2 -0.3565  6.189390  2.044970 15.526000
161  2 -0.6829  4.965070  2.121600  5.995250
162  2 -0.5819  5.323310  2.918920 24.125000
163  2 -0.6738  7.228790 10.029100 10.565200
164  2 -0.5369  7.916420  8.106890 22.379400
165  2 -0.5903 19.840200 17.523500 12.398000
166  2 -0.6702 19.578800  2.067420 24.790600
167  2 -0.4842 -2.273630 10.816400  7.289230
168  2 -0.3919 19.216200 10.283800  1.794910
169  2 -0.5618 -0.889914  1.396180 10.845700
170  2 -0.4657  4.539470  1.293330  1.142160
171  2 -0.5986  0.017743  9.414800  9.879490
172  2 -0.6708  1.799720  8.576460 23.750300
173  2 -0.5162 14.730400  3.567080 12.823900
174  2 -0.7005 11.772800 17.953700 23.706200
175  2 -0.6321 13.819000 14.222600  6.682450
176  2 -0.3358 13.146300 12.100800  0.693552
177  2 -0.5841  2.004120  6.542230  1.701500
178  2 -0.2447 -2.166140  4.596730 21.442300
179  2 -0.1038  6.813090 13.634100  4.067850
180  2 -0.1043 18.797500 11.350400 20.239900
181  2 -0.3390 12.522000  5.378240  5.579120
182  2 -0.7390 10.130200  2.646310 18.222700
183  2 -0.1184 18.754500  6.649430  2.099760
184  2 -0.1074 17.970300 10.062300 17.343200
185  2 -0.4713 15.898000 12.008300  2.656900
186  2 -0.4871  4.858060  6.765520 16.038200
187  2 -0.2878  9.223870  5.134880  4.438880
188  2 -0.4747  4.705390  2.675800 19.130600
189  2 -0.6175 19.628700  2.902820  0.948425
190  2 -0.1667 12.513600 11.444100 18.651300
191  2 -0.4901 20.594800 16.176800  5.112270
192  2 -0.7072  8.665840 15.959600 19.287300
193  2 -0.4482  5.658200  5.458670  4.490500
194  2 -0.1914 22.187800  5.870710 18.628600
195  2 -0.5457  1.332190 16.404300  9.071980
196  2 -0.4425 16.028500 15.761200 20.592100
197  2 -0.3861 12.550500  3.348500 27.164000
198  2 -0.5210 15.379400  2.434620 22.363300
199  2 -0.1766 12.489200  2.168450  3.041720
200  2 -0.4700  9.135840 11.258900 23.554600
201  2 -0.5599  1.323080  5.050500  6.940590
202  2 -0.5197  7.407420  6.528640 18.516500
203  2 -0.4183  6.796230 16.764600  3.742340
204  2 -0.5611  6.588560 12.136900 15.761200
205  2 -0.6551 18.778000  8.008790  9.834600
206  2 -0.5818 -1.749530  9.228740 24.537500
207  2  0.0721 15.524200  5.149430  3.064940
208  2 -0.0681 20.559000 11.604600 18.405200
209  2 -0.6090 22.019000  8.121710 11.497000
210  2 -0.5673 -0.652894  9.391990  0.084603
211  2 -0.7224 -1.705740 16.624500 13.788000
212  2 -0.5714 -1.866740 13.627700 24.855700
213  2 -0.3096  7.668620  5.570820 13.607800
214  2 -0.1852  8.564420 13.671500  1.416820
215  2 -0.1209 16.374900 13.912900 17.689700
216  2 -0.6312 10.118300 17.060500  0.400952
217  2 -0.3641 -1.130380  3.433970 15.464300
218  2 -0.5527  0.959208  1.512560  1.816100
219  2 -0.5344 -0.142612 10.415000 13.594000
220  2 -0.6402 -0.371681 12.833600  1.489410
221  2 -0.6047  9.889690  2.182370 14.217500
222  2 -0.6789 11.087500  4.561090 22.120300
223  2 -0.2072 10.893500 11.672100 16.019300
224  2  0.0607 11.642400 12.200300  4.689830
225  2 -0.5748  2.305690 15.619100  2.508050
226  2 -0.1093 20.192300 14.275800 20.900700
227  2 -0.5396  0.123963  2.274600  4.769240
228  2 -0.5622 17.123100 11.507100 22.815100
229  2 -0.3185 15.498700  2.530560 25.853200
230  2 -0.6240  8.463200 15.828400 13.775600
231  2 -0.4297 14.566700  7.509120  7.508230
232  2 -0.5179 12.283900 12.532800 12.496400
233  2 -0.3033 10.095400 11.519000  5.996470
234  2 -0.5872  6.156790 12.915700 12.109600
235  2 -0.1004  7.280120  5.898740  1.656350
236  2 -0.5343  1.400700  4.642260 11.670000
237  2 -0.3968 15.159400  7.043560  0.542373
238  2  0.0452 18.242700 14.248000 18.430700
239  2 -0.7203 21.964100  4.814900  2.918670
240  2 -0.4942 19.797900  8.651240 14.642500
241  2 -0.5226  3.979870  7.211020  8.036440
242  2 -0.8514  4.466420 10.592800 22.876300
243  2 -0.5379  3.588710 14.155600  6.827830
244  2 -0.5493  3.810380 15.046200 21.539800
245  2 -0.5531 12.740700 10.216000  9.402990
246  2 -0.7645 16.576600  5.970480 21.107200
247  2 -0.3422 17.887300 15.726700 10.170100
248  2 -0.1557 18.028100 17.635400 18.374400
249  2 -0.3290  2.995410  2.869410  9.422150
250  2 -0.5103  4.657340  6.296380 26.004000
251  2 -0.4975  3.275150 10.909200 12.112800
252  2 -0.7676  6.415280 12.218900 19.124800
253  2 -0.6661 13.511800  2.159190  6.922180
254  2 -0.2399 19.532600  4.260910 18.978800
255  2 -0.6152 15.542400 12.265600 10.443400
256  2 -0.5511 12.030000 12.864400 21.631500
257  2 -0.4812  7.223560  7.447060  7.358170
258  2 -0.5490 11.212400  6.850930 19.451300
259  2 -0.0939  6.248700  7.797110  2.041230
260  2 -0.4847  1.735440 11.370400 18.707500
261  2 -0.1519 17.586500  1.991730  4.637380
262  2 -0.4401 19.306700  4.964440 15.307600
263  2 -0.4486 18.014100 16.274800  6.673500
264  2 -0.5737 20.214400 12.968000 13.141100
265  2 -0.5019  8.709370  1.701160  5.930650
266  2 -0.0806  2.464970  3.661080 15.866500
267  2 -0.7135 19.780500 15.417100 26.088000
268  2 -0.2090 19.871800  1.445290 17.211200
269  2 -0.6356 12.692100 10.010400 25.143200
270  2 -0.5832 15.485700  2.728170 16.248000
271  2 -0.2437 12.782700  9.614210  4.795330
272  2 -0.1069 15.795400  9.949290 16.788800
273  2 -0.4579 20.978800  1.735410  7.227380
274  2 -0.4158 -1.009210  1.239890 22.184000
275  2 -0.4624  0.825605 11.779500  6.089940
276  2 -0.4412 -1.502560 11.195200 20.656700
277  2 -0.5846 10.582500  7.501800 10.547700
278  2 -0.4125 14.365100  1.452230 19.037200
279  2 -0.2179  9.921160  9.737820 13.004100
280  2 -0.2191  7.768250  8.524660 15.398500
281  2 -0.6209 -0.319508  7.927120  4.441720
282  2 -0.1772  1.212360  4.366150 21.365400
283  2 -0.6541 -1.880580 14.885100  9.669370
284  2 -0.2656 20.679300 16.391900 20.654100
285  2 -0.3372  9.585310 15.007200  5.072560
286  2 -0.6267  9.700790  7.032390 26.193700
287  2 -0.5464  8.953860 14.636300 10.555800
288  2 -0.6713  6.859490 17.265300 22.670500
289  2 -0.5379 10.171600 17.521300  8.945920
290  2 -0.4965  4.489850 16.012900 17.119100
291  2 -0.6173  8.156570  4.115850  9.100110
292  2 -0.4836  0.584381 14.629300 16.774800
293  2 -0.3072 17.159800  2.785110  7.595610
294  2 -0.2882 21.681700 15.062100 17.506200
295  2 -0.4040 17.734000  9.436710  5.188710
296  2 -0.6365 19.749400  7.919520 21.429600
297  2 -0.6530 -0.312931 15.285800  6.125830
298  2 -0.3077  1.439100 18.194200 18.577200
299  2 -0.2991 20.798000  6.580060  5.369020
300  2 -0.3820  0.033983  6.477280 16.693700
301  2 -0.6328 11.979400  4.293190  9.516300
302  2 -0.4810 12.791800 17.008000 16.186000
303  2 -0.2947 11.973700 15.067100  2.566550
304  2 -0.4051 10.620000  6.974280 15.521000
305  2 -0.5296  6.574580 18.133700  9.853200
306  2 -0.3675  3.754100 11.921700  3.595890
307  2 -0.4345  3.064510 12.324000 15.395800
308  2 -0.6051  1.321180 15.165100 25.823700
309  2 -0.6534 15.911400  6.478850 17.423800
310  2 -0.5169 17.608600  8.735780 25.222300
311  2 -0.3453 16.217400 12.625700 14.733500
312  2 -0.4730 18.566900 11.944100 26.286300
313  2 -0.3612  4.313910  6.990170 11.975900
314  2 -0.7280 -0.562119  2.785850 25.594700
315  2 -0.6720  3.589190 16.365700 11.219300
316  2 -0.2688  8.427200  2.330450  2.534850
317  2 -0.5561 16.482800  8.501010 12.740800
318  2 -0.0501 14.614300  7.644210  3.694150
319  2 -0.6248 15.539800 17.620900 13.252500
320  2 -0.6978 18.591900 14.765000  2.449450

