Generated by pymatgen.io.lammps.data.LammpsData

320  atoms

  2  atom types

0.000000 24.637781  xlo xhi
0.000000 17.058433  ylo yhi
0.000000 27.370788  zlo zhi

Masses

1  208.9804
2   78.9600

Atoms

1    1  0.4161 21.280700  5.454570 11.349800
2    1  0.7607 -0.627030 16.016400 21.838300
3    1  0.6582  0.603957 13.007700  5.699780
4    1  0.5320  3.676180  5.360860 16.285700
5    1  0.6854  8.951860  9.285850  8.057080
6    1  0.7008 12.352600 18.136900 12.083100
7    1  0.7016  1.587110 13.549900 26.252400
8    1  0.6785  1.773940  8.277480  8.349020
9    1  0.6974  4.192500 15.033200 14.310100
10   1  0.7520 18.695700 14.368500 22.911000
11   1  0.8121  0.928296 11.078900 18.780900
12   1  0.7649  0.854157  2.889380 20.252500
13   1  0.6262 12.731900  2.801770 18.818000
14   1  0.6823 11.991000  8.281960 21.988800
15   1  0.6963 15.085100 11.987000 12.047900
16   1  0.3424 16.897200 17.376100 25.670100
17   1  0.6538  6.431270 18.337400 25.661400
18   1  0.6384  6.800880  7.571870 16.495100
19   1  0.6649 -0.447383 17.157100 25.778200
20   1  0.6300  1.625240  4.619980 23.570800
21   1  0.6064 21.171300  6.772240 14.695400
22   1  0.7036 17.405400  6.784100 11.839700
23   1  0.6418 17.740800  5.425490 25.617600
24   1  0.6388 14.214200 16.033200 24.109800
25   1  0.6819 14.637600  7.296710 18.739600
26   1  0.4938 19.723800  2.519740 26.634700
27   1  0.5994  5.812130 15.111600  9.441610
28   1  0.7424  0.311074  5.277550 27.091000
29   1  0.7731 15.009400 16.302700  9.979130
30   1  0.7431 10.751600 12.976000 12.903700
31   1  0.7476 -1.987870 18.281200 17.229200
32   1  0.5153 12.580500 16.842100 20.170300
33   1  0.7928  1.720880 17.163700  2.240140
34   1  0.5576 14.686600  3.868120 23.274000
35   1  0.7012  4.408350  8.951470  6.035860
36   1  0.8096 -0.438395  8.353970 14.273400
37   1  0.7000  6.771250 17.568600 12.006200
38   1  0.7044  3.684030 10.687500 16.725400
39   1  0.8028  9.191170  3.615510  9.618150
40   1  0.6355 11.606500  9.305320 14.618200
41   1  0.5792 -2.063880 15.031900 12.941200
42   1  0.7308  3.043120 16.291100 19.607100
43   1  0.6952  0.127688  5.549660 17.584700
44   1  0.6094 21.372800  5.496850  4.140680
45   1  0.6132 11.850900  4.159730 14.588500
46   1  0.7838  9.250830  3.755600 26.003900
47   1  0.7711 14.858700  3.144010 10.252600
48   1  0.5169  9.524620 11.241400 27.471400
49   1  0.5895  6.207760 13.097900  2.441700
50   1  0.7264  5.671240  5.648460 19.349400
51   1  0.7235  2.398180  7.261830  2.895530
52   1  0.8183  7.954310  9.128760 12.079000
53   1  0.6313 19.902100 15.000100 14.417500
54   1  0.5386  8.892860 17.860600 23.401500
55   1  0.7409 -0.949342 14.577800  8.513130
56   1  0.6769  1.669120 17.736000 13.644200
57   1  0.7932  5.492680  1.650630  3.385990
58   1  0.7064  4.835690  4.734900  1.145280
59   1  0.2844 -2.365770  8.399630  6.536570
60   1  0.6838  6.857980  7.891250 22.690900
61   1  0.6505 10.801600  6.276480 17.505400
62   1  0.6781 16.640400  5.998580 20.924700
63   1  0.4994  9.091910 11.356100  4.015950
64   1  0.5177 -0.404139  6.140560  5.261040
65   1  0.8516  3.848690  8.128230 25.183700
66   1  0.7082  4.106020  1.601930  9.204070
67   1  0.4846 21.205300 17.019400  0.347741
68   1  0.6824 17.949000 15.621100 18.704500
69   1  0.6290  5.611440 13.401900 18.395800
70   1  0.7979  6.712570 16.561300 16.452700
71   1  0.6826  6.927900 11.571000 22.431100
72   1  0.7308  5.057530  6.056280  9.871470
73   1  0.5913  7.119800 14.751700 24.083800
74   1  0.6099  8.133320  3.600870 16.984300
75   1  0.7230 -0.458444  9.968750 26.500000
76   1  0.6420  7.685130 12.851000  7.146880
77   1  0.6210 20.137600  9.174870  2.271010
78   1  0.8218  3.624550 10.077800 12.744500
79   1  0.7220 21.433900 17.144700  9.250460
80   1  0.5027 -1.269180  4.123040 14.178000
81   1  0.7185 -2.402250  2.891590 22.556400
82   1  0.6657  5.042270 11.052700  9.099530
83   1  0.6832  2.734140 16.896100 23.828700
84   1  0.6004 21.317400 10.465900 13.341600
85   1  0.5882 15.138400  2.415980 26.398600
86   1  0.6917 20.608400  6.108350 18.875800
87   1  0.7623 13.007600 11.604000 17.486400
88   1  0.6103 19.083400  2.217670 19.590900
89   1  0.7310  6.411430  1.701720 20.326900
90   1  0.7083  8.587690  4.117800  5.821350
91   1  0.6416  2.974480  2.832710 26.535600
92   1  0.7273  8.402650  4.739350 13.490800
93   1  0.7512 22.019500  5.766890 24.388100
94   1  0.8142  0.406184  2.202990  9.350950
95   1  0.6786 21.936400  2.010360  5.754930
96   1  0.5117 19.609200 13.802900 11.431000
97   1  0.4418 -2.035420  8.813650 10.838600
98   1  0.5375  4.430580  3.116590 13.513100
99   1  0.7139  2.602990 18.197700  5.486880
100  1  0.7664 19.977700 11.482300 17.800800
101  1  0.7131 17.488100  9.116290 15.681400
102  1  0.6840  9.530140  3.877120 21.606800
103  1  0.7471 -1.774780 14.092000  2.710550
104  1  0.6213  8.957710  7.132810  1.835900
105  1  0.6982 19.695800  2.880550 15.656200
106  1  0.7744 14.547200 15.804800 14.069500
107  1  0.6984  0.982240 13.015800 14.427400
108  1  0.6634  9.873130 13.838500 16.544400
109  1  0.5110 19.572500  9.999040 10.088000
110  1  0.6394  8.820360 11.939500 19.465000
111  1  0.7655 15.824000  2.294520 17.236000
112  1  0.7178 14.977900  6.652980 15.117500
113  1  0.7248  1.551640  5.387070 11.920700
114  1  0.4107 -1.485860  9.814300  4.249670
115  1  0.6530  3.804270 14.796800  6.090570
116  1  0.6570  2.521140 10.351400  1.143890
117  1  0.5260 19.581600  3.388460  9.767840
118  1  0.6414  9.399090  7.709820 25.256800
119  1  0.4067 22.165800 11.047600  8.370640
120  1  0.6702 11.031700 12.370900 23.063700
121  1  0.5895  5.996230  9.545280  2.534680
122  1  0.5812  4.954220 12.885300 26.564000
123  1  0.6651 12.333700  6.640970 11.618500
124  1  0.5473  9.564070 15.806800 21.010100
125  1  0.6147  3.792150  4.436420  6.900660
126  1  0.6259 -0.362433 14.803400 16.839000
127  1  0.6846  1.356050 11.951800  9.709250
128  1  0.4691 16.852100 18.127800 21.490100
129  2 -0.5655  2.621090  7.799360 14.528400
130  2 -0.1527 11.448400 14.714700 26.411000
131  2 -0.6477 -2.319860 12.683500 15.167300
132  2 -0.6014 19.348200  4.951090 21.151800
133  2 -0.8814 -1.261620  6.438250 12.735700
134  2 -0.0687 14.665800 11.454000  8.934720
135  2 -0.5272 17.851100 15.494200 12.889600
136  2 -0.3154 12.870100  9.668110 24.948700
137  2  0.0172 16.805100  8.870760  6.379060
138  2 -0.5610 -2.017260  2.797320 19.605200
139  2 -0.5755  9.174800  8.718210  4.835290
140  2 -0.2235 -2.220950 13.685200 22.666800
141  2 -0.3817 18.850400  9.029130 19.508800
142  2 -0.7781  8.066710 11.232500 24.736300
143  2 -0.5847 19.850200  7.117150  5.581210
144  2 -0.6533  5.726150 15.713600 19.844000
145  2 -0.4810 19.674200  1.873470 13.031900
146  2 -0.0096 19.638300 10.525000 22.958100
147  2  0.0187 13.942200  6.371350  3.132900
148  2 -0.8361  0.677196 10.686500  7.247780
149  2 -0.3546 17.290600 13.404300  9.340500
150  2 -0.6669  4.356880 17.401200 15.909900
151  2 -0.4278  8.632040 10.471200 14.327200
152  2 -0.7347  9.527330  2.526000 19.256100
153  2 -0.6509  0.076293 11.955200  3.233390
154  2 -0.7769 13.269100  5.113650 16.653200
155  2 -0.5042 21.846000 12.350200  5.628660
156  2 -0.5343  6.613140 10.412500 17.310900
157  2 -0.0959 13.089400 12.897200  9.206700
158  2 -0.4870  9.328290 16.992600 17.175500
159  2 -0.5418 -0.865790 16.130000  6.076760
160  2 -0.4784 -0.344441 16.764500 10.664600
161  2 -0.7830 -1.355360 12.976600 10.456900
162  2 -0.7212 -2.020070  2.937460  8.367240
163  2 -0.4283  8.651120 12.150800 10.303600
164  2 -0.5500  5.340310 17.122100  7.033880
165  2 -0.5951  1.923590 17.059100  7.930690
166  2 -0.9584 17.003300  2.841470 24.542300
167  2 -0.6932  3.313040  6.985000  0.379989
168  2 -0.5085  8.986610 17.813000 25.995800
169  2 -0.5707 10.218400  2.582840 13.034500
170  2 -0.6915  2.709250 16.880000 26.627700
171  2 -0.5958  0.417024  6.052960  9.599770
172  2 -0.8642  8.411770 13.482400 21.661800
173  2 -0.3740  7.421630 14.559300 12.212700
174  2 -0.1832 11.195500  4.550140  3.365630
175  2 -0.0541 15.500200 16.311600  3.499320
176  2 -0.6359  7.972090  6.613870 18.934700
177  2 -0.0088 13.661600 10.871300  2.195270
178  2 -0.3471  3.127980  6.878850 20.414900
179  2 -0.0982 14.361900 12.741300 24.822000
180  2 -0.5125 21.695600 17.145600 23.284400
181  2 -0.6762  3.075590  3.105530  2.384740
182  2 -0.6348 11.215800 13.225800 18.949000
183  2  0.0088 13.033200 17.879200  4.029910
184  2 -0.6106  0.807993 10.794000 15.848800
185  2 -0.2565 18.007700 13.439200 26.060800
186  2 -0.5943 22.107300  9.234950 15.694400
187  2 -0.6701 19.214000 17.027100 20.904500
188  2 -0.4480  6.610480 14.569500  4.645890
189  2 -0.0429 16.811500 11.767200  3.868950
190  2 -0.5807  3.347040 18.516100 21.161700
191  2 -0.5732 12.205600  4.148980 10.265900
192  2  0.0272 12.894900 16.985800  1.169690
193  2 -0.3684  9.813160 18.090200  9.863600
194  2 -0.5248  2.220320 14.151200 23.815900
195  2 -0.8207  5.444880 11.703200  6.590120
196  2 -0.5720  6.342740  6.840310 13.611700
197  2 -0.4587  7.683490  3.189590  2.163680
198  2 -0.7035  5.151980  4.055610 25.955000
199  2 -0.0528 17.265700 11.098700  6.862180
200  2 -0.5168 13.726500 18.076500 16.654000
201  2 -0.6047  3.924010 16.685100 10.908900
202  2 -0.6213  6.765220  4.089980 21.492300
203  2 -0.5171  1.861760  7.434210 17.733800
204  2 -0.4182  5.120300 12.201700 14.339300
205  2 -0.6491 -0.417733 16.083100  1.298740
206  2 -0.5680 18.580800 11.791800 14.902300
207  2 -0.0298 13.151200 12.090900  0.309696
208  2 -0.6457 20.161700 16.952700 16.490700
209  2 -0.6236  0.895636  3.208920  5.895120
210  2 -0.0597 -0.387193 12.612300 22.822200
211  2 -0.4261 -0.308203 13.502400 19.524500
212  2 -0.1463 11.284500  2.742730  6.425190
213  2 -0.3217 11.357900  5.173770 27.350600
214  2 -0.5202 15.441700  8.745880 12.674700
215  2 -0.6035 15.958500 14.945200 22.635100
216  2 -0.3737 20.780200 16.323400  3.334360
217  2 -0.4943 -0.384699  5.454310 21.583200
218  2 -0.6473 -0.412967  6.591000  1.885540
219  2 -0.6966  6.482540  9.181210  9.639950
220  2 -0.5172 -1.750230  7.175120 26.329700
221  2 -0.7433  5.431060  3.723580 17.512200
222  2 -0.6913 -0.807412 17.032700 14.790900
223  2 -0.7028  3.552940 12.343700 10.822200
224  2 -0.5176 10.806700  9.169810  1.146290
225  2 -0.2433  8.244720  1.461640  5.179040
226  2 -0.5891 17.724800  4.522410 17.725900
227  2 -0.5357  0.922564  9.429080 11.916600
228  2  0.0348 18.574600 14.408200  6.641940
229  2 -0.2717 19.617900  7.939840 24.727700
230  2 -0.7753  2.167190  2.837960 11.322300
231  2 -0.6580  9.042920  5.465210 24.108600
232  2 -0.6063 13.304500 15.065800 11.645800
233  2 -0.3008 12.682700 18.039100 26.324800
234  2 -0.5120  9.060090  6.157640 10.851000
235  2  0.0055 16.354200 12.720000  1.878970
236  2 -0.5628  6.377120  6.395910  7.446090
237  2 -0.0584 15.759200 18.380600  6.727880
238  2 -0.1046 20.096400 10.846200 26.343900
239  2 -0.6549  3.750600 16.692300  3.909170
240  2 -0.5470 -0.072385 17.087200 19.256400
241  2 -0.7789 10.598900  7.087190 13.739900
242  2 -0.5457  7.006350 14.305900 15.388500
243  2 -0.4294 19.354200 18.132200  7.951450
244  2 -0.3164  6.818670 16.886700  1.797730
245  2 -0.5368  1.145270 14.840800 12.846800
246  2 -0.5758 11.629000  2.924790 23.980500
247  2 -0.2519 19.505600 11.909800  1.320970
248  2 -0.3054 20.889600 14.060400 19.732600
249  2 -0.6031  6.406260  3.903870 11.378800
250  2 -0.4439  4.582820  9.308950 22.817300
251  2 -0.7386  1.863170  7.132560  5.789460
252  2 -0.7813  0.424061  1.793580 23.711200
253  2 -0.7627  5.901120 16.898900 23.434000
254  2 -0.5294  1.286990  7.082640 24.549800
255  2 -0.2989 16.404600  5.392830  8.632500
256  2 -0.1247 11.436500 14.304900  2.035930
257  2 -0.0423  9.801640 15.730500  1.510350
258  2 -0.6693 22.039800  3.268320 25.274900
259  2 -0.4488 10.221700 11.880600  6.519960
260  2  0.0093  1.021590  9.120340 22.436200
261  2 -0.5869  3.756560 13.498900  1.549940
262  2 -0.3853 11.210900 16.065800 14.360200
263  2  0.0252 13.568200  9.365050  6.197120
264  2 -0.6352 17.686100  6.561740 14.725600
265  2 -0.3156 16.577000  1.909470 14.674500
266  2 -0.3161 17.769800 12.540700 18.797400
267  2 -0.5522 20.934700 14.625400  8.795930
268  2 -0.1540 14.674400 14.780800  0.336632
269  2 -0.6310  5.958070  3.132890  7.771670
270  2 -0.5221 10.212700  9.125520 17.168800
271  2 -0.1208 17.545000  7.492770  3.438280
272  2 -0.4547 15.741900  6.973060 23.370100
273  2 -0.6268 12.753500  6.126690 20.268600
274  2 -0.7399  5.509560 10.313700  0.106340
275  2 -0.5806  5.308980  6.664360  3.888470
276  2  0.0591 16.773400 10.590300 25.098100
277  2 -0.3843 16.482100  3.897110  1.118150
278  2 -0.4555 13.501700 18.119700  9.008300
279  2 -0.5581 15.056600  4.448190 12.825300
280  2  0.0203 16.535100 14.815400  5.949570
281  2 -0.0533 -0.963347  9.146780 22.863900
282  2 -0.2889  3.117510 12.115900 21.062300
283  2  0.1102 15.416100  5.201730  5.002720
284  2 -0.6006 13.399300 13.069600 14.595400
285  2  0.0716 11.004800 17.590600  4.261500
286  2 -0.0044 17.136900  3.772120  5.705340
287  2  0.0018 11.112600  2.374210  2.054820
288  2 -0.6300 11.599800 15.447500 22.824900
289  2 -0.2726 14.224600 14.489100 19.669700
290  2 -0.5028  2.201710 10.700200 25.406700
291  2 -0.0684 11.714000 15.555300  8.474140
292  2 -0.0692 17.758500 11.425600 22.421000
293  2 -0.4675 11.932000 10.673200 11.545900
294  2 -0.3916 16.020600 15.421100 16.634800
295  2 -0.3471 14.557600  9.876340 20.074400
296  2 -0.2982 -2.085290  8.266590 18.941500
297  2 -0.5152  6.790180  7.098850 26.147700
298  2 -0.4322 20.596900  6.284350  1.401670
299  2 -0.0204 13.189800 14.894000  6.094270
300  2 -0.5761  3.285790  7.688480 11.124100
301  2 -0.1027 12.629600  4.362570  6.767430
302  2 -0.6854 14.674900  9.334160 16.631300
303  2 -0.0022 14.028800 12.926600  5.697000
304  2 -0.5855  9.566600  9.011640 20.997800
305  2 -0.7882  3.049670 13.075400 17.276000
306  2 -0.5404 -1.161960 12.509400 26.788600
307  2 -0.9015 19.824500  8.686470 12.155100
308  2 -0.5961  3.650740 10.453500  3.678250
309  2 -0.7944 15.270800  3.300240 19.723600
310  2 -0.0799 13.133800  7.162610  6.714910
311  2 -0.0080 14.909500  8.401220  2.033340
312  2 -0.0198 16.408100  9.851270 27.298300
313  2 -0.5938  0.885191  2.689110 17.610000
314  2 -0.3183 19.580400  3.235510  3.525240
315  2 -0.6018  7.201200  2.171130 14.067200
316  2 -0.5324  0.066754  2.403490  0.141044
317  2 -0.8285 22.054400  4.622680 16.466700
318  2 -0.0467 16.763100 17.813600  3.961460
319  2 -0.3128 17.022900  8.857160  9.443740
320  2 -0.4844 16.742700  1.383680 10.973300

