Generated by pymatgen.io.lammps.data.LammpsData

320  atoms

  2  atom types

0.000000 16.864293  xlo xhi
0.000000 23.165087  ylo yhi
0.000000 24.472453  zlo zhi

Masses

1  208.9804
2   78.9600

Atoms

1    1  0.8042  0.954173 11.167700 10.259500
2    1  0.8211  0.994273 11.256100 22.807500
3    1  0.7972  1.000410 22.944600 10.485000
4    1  0.8463  0.997611 22.996600 22.602000
5    1  0.8372  4.965310 11.284500 10.413900
6    1  0.8418  5.145230 11.312500 22.864200
7    1  0.8552  5.110190 22.940100 10.611800
8    1  0.7890  5.126680 23.113300 22.787700
9    1  0.8500  9.369460 11.436200 10.644800
10   1  0.8091  9.695790 11.322900 22.641300
11   1  0.8135  9.333170 22.847600 10.553400
12   1  0.8020  9.463510 22.579800 22.912600
13   1  0.8405 13.332900 11.567700 10.356000
14   1  0.7644 13.763400 11.545400 22.796500
15   1  0.8252 13.573000 22.725300 10.785800
16   1  0.8587 13.783500 22.689400 22.735300
17   1  0.8073  3.163880  0.333802  1.503800
18   1  0.7923  2.742600  0.430324 13.985000
19   1  0.8339  2.980990 12.087000  1.613760
20   1  0.8145  2.980960 11.821700 13.843700
21   1  0.7957  7.363740  0.276022  1.685640
22   1  0.8364  7.240570  0.594076 14.043000
23   1  0.8335  7.451530 11.906000  1.780000
24   1  0.8569  7.141110 11.811200 14.036200
25   1  0.8151 11.623500  0.283956  1.828960
26   1  0.8403 11.297400  0.535603 13.876600
27   1  0.7875 11.546900 12.133100  1.319600
28   1  0.8556 11.434200 12.129400 13.873200
29   1  0.7919 16.078800  0.438518  1.499630
30   1  0.8199 15.715000  0.430935 13.959800
31   1  0.8226 15.801300 12.049300  1.415510
32   1  0.8526 15.645700 12.272400 13.963900
33   1  0.8339  3.044420  5.605600  7.839530
34   1  0.8365  3.107480  5.312920 19.885300
35   1  0.8309  3.100480 17.020000  8.146770
36   1  0.8279  3.200210 17.176800 20.639900
37   1  0.8319  7.251430  5.616780  8.033080
38   1  0.8462  7.137320  5.456450 19.788300
39   1  0.7992  7.129200 16.710200  7.953190
40   1  0.8220  7.348140 17.003400 20.184400
41   1  0.8450 11.398500  5.435220  8.035880
42   1  0.8396 11.475500  5.666000 19.927400
43   1  0.8303 11.584600 17.245400  8.067590
44   1  0.8337 11.534900 17.202400 20.251200
45   1  0.7886 15.721600  5.514550  7.873670
46   1  0.8368 15.600000  5.509850 20.018200
47   1  0.8159 15.643300 16.966500  8.160940
48   1  0.8621 15.803800 17.172000 20.074100
49   1  0.8144  1.198710  6.454810  4.700200
50   1  0.8512  0.754773  6.168840 16.489400
51   1  0.8385  0.852256 17.698600  4.533050
52   1  0.8173  0.773791 17.776900 16.673700
53   1  0.8134  5.222130  6.368300  4.423450
54   1  0.8165  4.934070  6.366040 16.451800
55   1  0.8731  5.295340 17.528600  4.618660
56   1  0.8392  5.145060 17.825500 16.901600
57   1  0.8070  9.134890  6.295250  4.562810
58   1  0.8147  9.251660  6.400160 16.306300
59   1  0.8508  9.661650 17.917800  4.705430
60   1  0.8485  9.357360 17.749000 16.781100
61   1  0.8256 13.763300  6.338680  4.413800
62   1  0.8423 13.330100  6.364340 16.626300
63   1  0.8428 13.700200 17.705300  4.590300
64   1  0.8099 13.565300 18.014300 16.521700
65   1  0.8171  0.994561  2.065880  5.954890
66   1  0.8133  0.961935  2.406310 17.995600
67   1  0.8442  0.970886 13.578600  6.304540
68   1  0.8257  0.783048 13.352900 17.894300
69   1  0.8426  5.109930  1.828850  5.745990
70   1  0.8244  4.909830  2.023290 17.851500
71   1  0.8399  5.309170 13.659300  5.894620
72   1  0.8095  5.117480 13.686300 18.056200
73   1  0.8513  9.469500  2.042020  6.144940
74   1  0.8484  9.619100  2.131750 18.285500
75   1  0.8593  9.314450 13.923600  6.037180
76   1  0.8487  9.192610 13.579700 17.964900
77   1  0.8123 13.651000  2.035680  6.149020
78   1  0.8524 13.590800  1.829290 18.069100
79   1  0.8687 13.346300 13.623200  6.142600
80   1  0.8666 13.435100 13.775200 18.021500
81   1  0.8524  3.111350  9.813860  6.274820
82   1  0.8043  2.725450  9.718970 18.524600
83   1  0.8592  3.311590 21.304000  6.119720
84   1  0.8281  3.157010 21.306400 18.403800
85   1  0.8435  7.295450  9.680500  6.400770
86   1  0.8405  7.079930  9.656000 18.472100
87   1  0.8302  7.286400 21.186500  6.538850
88   1  0.8669  7.146450 21.391400 18.619400
89   1  0.8415 11.343000  9.918590  6.353040
90   1  0.8321 11.435100  9.852100 18.490400
91   1  0.8356 11.350000 21.226300  6.327250
92   1  0.8436 11.479500 21.092500 18.491400
93   1  0.8214 15.776400  9.577430  6.333870
94   1  0.8111 15.551600  9.652330 18.404500
95   1  0.8519 15.836900 21.211900  6.421980
96   1  0.8322 15.948000 21.384900 18.478400
97   1  0.8307  2.926510  7.829710 12.420100
98   1  0.8376  2.936920  7.572960 -0.113548
99   1  0.8305  2.875310 19.469600 12.398100
100  1  0.8440  3.195170 19.244800  0.215794
101  1  0.8237  7.378910  7.794820 12.497400
102  1  0.8003  7.126700  7.658370  0.054836
103  1  0.8390  7.172230 19.481900 12.624200
104  1  0.8510  7.405930 19.535300  0.050364
105  1  0.8319 11.381500  8.198630 12.659100
106  1  0.8033 11.458400  8.127020  0.206488
107  1  0.8195 11.061900 19.477500 12.654700
108  1  0.8202 11.467400 19.651100  0.430329
109  1  0.8819 15.620200  7.921800 12.188400
110  1  0.8466 15.742900  7.608920  0.016662
111  1  0.8079 15.518800 19.217300 12.100000
112  1  0.8407 15.895800 19.571200  0.335354
113  1  0.8624  0.946020  3.846960 24.116800
114  1  0.8605  0.699188  4.002310 11.580100
115  1  0.8505  0.996530 15.627900 24.199800
116  1  0.8404  0.657091 15.477300 12.060600
117  1  0.8359  5.095500  3.744350 24.198100
118  1  0.8718  5.160650  4.152890 11.644900
119  1  0.8165  5.211300 15.371900 24.351200
120  1  0.8489  4.963270 15.599600 11.844400
121  1  0.8064  9.453150  4.131690 24.626000
122  1  0.8463  9.333990  3.876160 12.095300
123  1  0.8413  9.401800 15.609800 24.364300
124  1  0.8553  8.866960 15.699600 11.977100
125  1  0.8255 13.423100  4.100860 24.210900
126  1  0.8570 13.438300  4.192170 12.028300
127  1  0.8352 13.659600 15.540400 24.272700
128  1  0.8684 13.566500 15.223300 11.980200
129  2 -0.5723  1.116050  3.727570  8.554030
130  2 -0.5442  0.978623  3.648270 20.564000
131  2 -0.5476  0.885337 15.115000  8.888850
132  2 -0.4663  0.987816 15.335600 20.857500
133  2 -0.4795  5.011410  3.647770  8.657560
134  2 -0.5527  5.017170  3.550440 20.353300
135  2 -0.5789  5.019010 15.009300  8.661380
136  2 -0.5213  5.233220 15.204600 20.933500
137  2 -0.5245  9.262830  3.644180  8.604950
138  2 -0.4803  9.502230  3.749560 20.711700
139  2 -0.5225  9.451310 15.311200  8.718900
140  2 -0.4903  9.631560 15.332800 20.992700
141  2 -0.5125 13.455800  3.481350  8.678420
142  2 -0.4547 13.663600  3.542760 20.907700
143  2 -0.5479 13.539200 15.113300  8.597680
144  2 -0.4863 13.741100 15.428200 20.697900
145  2 -0.5436  3.189460  8.283640  3.892590
146  2 -0.5205  2.681640  8.104850 15.763200
147  2 -0.5027  3.096470 19.196300  3.850030
148  2 -0.5128  3.118880 19.730700 15.942800
149  2 -0.5495  7.357260  8.187160  3.745580
150  2 -0.5750  6.968920  8.054420 15.799500
151  2 -0.4924  7.474250 19.344900  3.991200
152  2 -0.5124  7.379600 19.615500 16.118800
153  2 -0.4932 11.409000  8.131360  3.976580
154  2 -0.5914 11.304700  8.106710 15.836200
155  2 -0.5644 11.782400 19.590100  4.004420
156  2 -0.5580 11.157000 19.683700 16.024900
157  2 -0.5118 15.722600  8.149780  3.693400
158  2 -0.4792 15.844300  8.164890 15.690700
159  2 -0.5122 15.725400 19.605800  3.824670
160  2 -0.5175 15.917000 19.793600 15.834000
161  2 -0.5273  3.152870  9.209320  9.732730
162  2 -0.5464  3.160560  9.460560 22.176600
163  2 -0.4907  3.228520 20.984100  9.855740
164  2 -0.4873  3.351270 21.125000 21.927600
165  2 -0.4872  7.408020  9.566660  9.836680
166  2 -0.4833  7.259970  9.560890 22.115900
167  2 -0.5186  6.942900 21.040300 10.109600
168  2 -0.5362  7.360150 21.071900 22.067100
169  2 -0.5037 11.436800  9.487970  9.900830
170  2 -0.5411 11.570200  9.415000 22.020900
171  2 -0.5212 11.317700 20.903600 10.004600
172  2 -0.5429 11.550500 20.851500 22.101400
173  2 -0.4881 15.400100  9.387860  9.786950
174  2 -0.5188 15.738100  9.298940 22.086200
175  2 -0.5468 15.795800 21.029400  9.804120
176  2 -0.5211 15.936600 21.066800 21.997300
177  2 -0.5220  1.312770  2.190510  2.303670
178  2 -0.5204  0.693418  2.395590 14.361900
179  2 -0.5163  0.790421 13.817400  2.149490
180  2 -0.5561  0.899492 13.860000 14.624500
181  2 -0.5282  5.162350  2.131900  2.293230
182  2 -0.4878  5.032710  2.349010 14.496300
183  2 -0.5089  5.223690 13.909100  2.424270
184  2 -0.4761  5.134050 13.787400 14.501700
185  2 -0.4904  9.578270  2.300210  2.598120
186  2 -0.5416  9.383730  2.416370 14.637300
187  2 -0.4967  9.475760 13.954000  2.395240
188  2 -0.5017  9.179010 13.782800 14.468700
189  2 -0.4852 13.708000  2.163060  2.403840
190  2 -0.4749 13.569900  2.331670 14.615500
191  2 -0.4951 13.547100 13.946900  2.285870
192  2 -0.5531 13.394500 13.871000 14.581400
193  2 -0.4967  1.012360 11.302700  4.760660
194  2 -0.5642  0.768637 10.911000 16.745100
195  2 -0.5204  0.969792 22.418100  4.783890
196  2 -0.5452  1.043550 22.670300 16.761000
197  2 -0.4901  5.247490 10.938600  4.806310
198  2 -0.5217  5.267970 10.896300 16.751200
199  2 -0.5269  5.187030 22.294000  4.525430
200  2 -0.5357  5.225600 22.621800 16.760400
201  2 -0.5038  9.205770 11.131300  4.912610
202  2 -0.5133  9.327270 11.057400 16.762900
203  2 -0.5404  9.375780 22.575700  4.905430
204  2 -0.4744  9.313020 22.702200 16.934200
205  2 -0.4656 13.368000 11.233300  4.706760
206  2 -0.5204 13.312800 11.139600 16.769000
207  2 -0.4702 13.849100 22.551200  4.835880
208  2 -0.5322 13.493000 22.542700 17.022500
209  2 -0.5322  3.113560  0.702590  7.438660
210  2 -0.5082  2.904440  0.662648 19.691400
211  2 -0.5590  3.268660 12.181000  7.588220
212  2 -0.4948  2.972850 12.366500 19.772000
213  2 -0.4975  7.161390  0.819993  7.641600
214  2 -0.4591  7.266060  0.844083 19.693200
215  2 -0.4902  7.399820 12.496600  7.681530
216  2 -0.5016  7.302220 12.218200 19.667000
217  2 -0.5173 11.434100  0.758001  7.621180
218  2 -0.4815 11.560500  0.692327 19.873600
219  2 -0.5363 11.350200 12.486400  7.784560
220  2 -0.5236 11.211100 12.521300 19.449700
221  2 -0.4964 15.834500  0.922675  7.759790
222  2 -0.4809 15.677400  0.865845 19.713700
223  2 -0.5267 15.540800 12.261200  7.651450
224  2 -0.5180 15.492500 12.505900 19.507100
225  2 -0.4983  2.994150  4.982450  1.212290
226  2 -0.4686  2.843150  5.066770 13.429200
227  2 -0.5503  2.930470 16.678600  1.251170
228  2 -0.4600  2.948940 16.544300 13.664900
229  2 -0.5291  7.051530  5.011260  1.521340
230  2 -0.5327  7.173970  5.026150 13.493100
231  2 -0.4576  7.351120 16.592300  1.597960
232  2 -0.5082  6.789200 16.780500 13.753800
233  2 -0.5521 11.479300  5.262400  1.466180
234  2 -0.5338 11.441800  5.293030 13.651600
235  2 -0.4737 11.656100 16.790100  1.580700
236  2 -0.4657 11.119200 16.614100 13.656500
237  2 -0.5128 15.929100  5.095150  1.259420
238  2 -0.4929 15.663100  5.099230 13.450300
239  2 -0.4826 15.849200 16.805800  1.635490
240  2 -0.5658 15.418600 16.555800 13.523200
241  2 -0.5504  0.842421  6.536560 10.764000
242  2 -0.5438  0.884902  6.416870 22.875600
243  2 -0.5507  0.896538 18.015700 10.696100
244  2 -0.5368  1.175950 18.175500 22.967000
245  2 -0.5336  5.518140  6.610500 10.680900
246  2 -0.5455  5.160020  6.408920 23.010800
247  2 -0.5190  5.043890 18.115500 10.753700
248  2 -0.5325  5.350370 18.130600 23.023600
249  2 -0.5067  9.485330  6.583440 10.929100
250  2 -0.4760  9.352110  6.777460 22.792000
251  2 -0.5242  8.999850 18.266400 10.851100
252  2 -0.5521  9.289170 18.034000 23.184500
253  2 -0.5001 13.445500  6.633430 10.746400
254  2 -0.5293 13.553700  6.574670 22.959200
255  2 -0.5387 13.394600 18.031700 10.775700
256  2 -0.5020 13.892300 18.132200 23.267500
257  2 -0.6326  1.048090 10.019300  0.816254
258  2 -0.6080  0.700964  9.877930 12.842200
259  2 -0.7022  1.194230 21.605200  0.669037
260  2 -0.6436  0.784277 21.443600 13.078000
261  2 -0.5682  5.143050 10.096700  1.177700
262  2 -0.6490  5.054160 10.057000 13.140800
263  2 -0.6387  5.386640 21.509800  0.984749
264  2 -0.6086  5.178580 21.781500 13.131800
265  2 -0.6687  9.524270 10.191500  0.917855
266  2 -0.6877  9.403530 10.220100 13.162900
267  2 -0.6965  9.401280 21.439100  1.209930
268  2 -0.6701  9.263470 21.807800 13.226100
269  2 -0.6356 13.791400 10.042800  0.956815
270  2 -0.6102 13.624800 10.300800 13.047000
271  2 -0.6567 13.697900 21.517500  0.848238
272  2 -0.6122 13.276100 21.742400 13.434800
273  2 -0.6070  2.997300  1.712110 11.220500
274  2 -0.6858  2.953410  1.794230 23.383500
275  2 -0.6120  3.031830 13.235300 11.263700
276  2 -0.6550  3.230380 13.219800 23.499600
277  2 -0.5997  7.341610  1.870960 11.184000
278  2 -0.6075  7.477500  1.751570 23.486800
279  2 -0.5869  7.213960 13.231400 11.302100
280  2 -0.6076  7.469000 13.103200 23.507500
281  2 -0.6046 11.490200  1.632210 11.245300
282  2 -0.5883 11.618100  1.406400 23.666000
283  2 -0.6170 11.332900 13.557500 11.343900
284  2 -0.6763 11.808800 13.479300 23.284800
285  2 -0.5943 15.331000  1.650600 11.294900
286  2 -0.6201 15.648300  1.466570 23.290300
287  2 -0.6640 15.502600 13.160700 11.406700
288  2 -0.6676 15.996900 13.311500 23.337700
289  2 -0.6193  3.239860  4.405490  5.362000
290  2 -0.6869  2.778840  4.386190 17.142900
291  2 -0.6225  3.165500 15.754100  5.347090
292  2 -0.5950  3.163470 15.937200 17.629000
293  2 -0.6093  7.169700  4.299070  5.400320
294  2 -0.5978  7.199090  4.223780 17.371700
295  2 -0.7054  7.347520 15.732200  5.363100
296  2 -0.6793  7.362680 15.922700 17.430500
297  2 -0.6059 11.348500  4.364900  5.412700
298  2 -0.6401 11.535000  4.374140 17.477500
299  2 -0.6573 11.463000 15.882800  5.392370
300  2 -0.6380 11.537500 16.111600 17.573200
301  2 -0.6373 15.924800  4.579820  5.089950
302  2 -0.6272 15.310300  4.285620 17.423200
303  2 -0.6520 15.651900 15.786200  5.735160
304  2 -0.6422 15.676600 16.001500 17.512500
305  2 -0.6840  0.941365  7.645510  7.233020
306  2 -0.6298  0.724682  7.437650 19.085400
307  2 -0.5849  1.303540 18.887700  7.189480
308  2 -0.6097  0.942594 19.087100 19.353000
309  2 -0.6304  5.163940  7.520400  7.251910
310  2 -0.6405  4.916480  7.348490 19.190900
311  2 -0.6134  5.262550 19.097200  6.924860
312  2 -0.6212  5.314510 19.080700 19.370900
313  2 -0.6188  9.435220  7.466650  7.262280
314  2 -0.6162  9.131370  7.363580 19.072500
315  2 -0.6352  9.490300 18.995700  7.284650
316  2 -0.6075  9.203580 19.138800 19.385200
317  2 -0.6048 13.783000  7.382390  7.137030
318  2 -0.6825 13.515100  7.449260 19.047200
319  2 -0.6302 13.764600 19.192800  7.113180
320  2 -0.6360 13.612200 19.150100 19.149000

