Generated by pymatgen.io.lammps.data.LammpsData

320  atoms

  2  atom types

0.000000 16.864293  xlo xhi
0.000000 23.165087  ylo yhi
0.000000 24.472453  zlo zhi

Masses

1  208.9804
2   78.9600

Atoms

1    1  0.8851  0.391287 10.866100 10.664600
2    1  0.8457  0.612063 11.416200 22.892100
3    1  0.7968  0.833209 22.158000 10.000100
4    1  0.8015  0.512248 22.712800 23.037000
5    1  0.8327  5.041580 11.176500 10.358100
6    1  0.8283  5.199180 11.191500 22.373700
7    1  0.8271  4.778830 23.320300 10.233000
8    1  0.7726  4.888040  0.177299 22.207400
9    1  0.7874  9.962700 10.803900 11.445600
10   1  0.7939  9.251520  9.804550 22.846100
11   1  0.8139  9.026850 22.860200 10.337600
12   1  0.8354  9.066220 22.310500 22.989100
13   1  0.7235 13.468900 11.213800 11.470500
14   1  0.7875 13.425800 11.312300 23.076600
15   1  0.7616 13.534200 22.761100  9.399980
16   1  0.7469 13.371600 22.601000 22.697400
17   1  0.8060  3.007810  0.927946  2.573750
18   1  0.8536  3.015680 22.909900 14.235200
19   1  0.8212  2.935330 11.829400  2.440790
20   1  0.8046  3.502450 11.672600 14.698300
21   1  0.8304  7.524060  0.095904  2.169640
22   1  0.9062  7.687940 22.929300 15.160400
23   1  0.8294  7.341870 11.371800  2.280740
24   1  0.8108  7.419480 11.977400 14.672900
25   1  0.8259 11.401700 22.973700  1.884210
26   1  0.7336 11.350700  0.918107 14.613300
27   1  0.7215 11.591100 12.266300  2.466630
28   1  0.8168 11.245700 11.987500 15.313000
29   1  0.8124 15.366600 22.942800  1.747590
30   1  0.8597 15.776300  0.234358 14.346800
31   1  0.8178 15.233300 11.403800  2.236840
32   1  0.8500 15.440600 10.901000 14.777100
33   1  0.7331  3.251560  4.590000  8.296690
34   1  0.7441  3.520210  5.433120 20.592200
35   1  0.7771  2.648090 16.885700  8.832830
36   1  0.7517  3.092040 16.260500 21.535800
37   1  0.8061  7.184990  5.118540  8.009450
38   1  0.8044  7.373150  5.571300 20.731800
39   1  0.8715  6.977110 16.589400  8.290450
40   1  0.8139  7.617710 17.053500 20.546900
41   1  0.8439 11.029000  4.593780  9.075110
42   1  0.8188 11.231400  5.689400 21.060300
43   1  0.8639 11.403100 17.448700  8.611160
44   1  0.8532 11.355600 16.689500 20.884800
45   1  0.8347 15.270900  5.492710  8.684080
46   1  0.8173 15.453300  4.780030 20.199500
47   1  0.7626 15.445300 16.217100  8.502790
48   1  0.8011 15.859800 16.784900 21.174100
49   1  0.7713  0.739915  5.548080  4.115280
50   1  0.7849  1.008150  6.052250 16.840500
51   1  0.8716  0.641618 17.147600  4.325850
52   1  0.8425  1.099220 17.082100 16.948500
53   1  0.8441  4.803670  6.166270  4.662600
54   1  0.8274  5.357330  5.258270 16.098500
55   1  0.8294  4.914620 17.528900  4.821560
56   1  0.8314  4.820200 17.412400 17.340100
57   1  0.8451  9.237610  5.887770  4.803940
58   1  0.8242  9.295350  6.060260 16.592500
59   1  0.8488  9.255290 17.805000  4.704600
60   1  0.7594  9.560970 17.845900 17.068400
61   1  0.8729 13.042700  6.102940  4.513610
62   1  0.8279 13.562900  5.629610 16.790100
63   1  0.8867 13.655900 17.456900  4.392180
64   1  0.8295 13.655400 17.125000 16.338500
65   1  0.7129  1.145790  1.861520  5.927980
66   1  0.8495  1.651020  1.828110 17.733500
67   1  0.7609  1.060970 13.226300  6.055120
68   1  0.8120  1.210250 13.090800 17.553000
69   1  0.7358  5.270470  2.624880  5.951350
70   1  0.8694  5.338950  1.920020 18.477800
71   1  0.7744  4.707600 13.538700  6.406670
72   1  0.9115  5.257230 13.481700 18.580900
73   1  0.8715  9.361880  1.394390  5.754110
74   1  0.8812  9.276550  2.104090 18.415500
75   1  0.8160  9.642080 13.484500  6.423470
76   1  0.8355  9.483040 13.419100 18.560500
77   1  0.8481 13.385800  1.992420  5.650240
78   1  0.7605 13.892900  1.963610 18.841500
79   1  0.8261 13.556100 12.950300  6.782600
80   1  0.8536 13.458000 13.230300 18.236600
81   1  0.8085  2.847870  9.300310  6.868640
82   1  0.7526  3.271840  8.891900 18.872000
83   1  0.7880  3.253650 21.119500  6.409630
84   1  0.7797  3.090030 20.891000 18.877100
85   1  0.8230  6.749250  9.056730  6.992630
86   1  0.8450  7.009280  9.170700 19.176800
87   1  0.8458  7.288070 20.926000  6.710290
88   1  0.8140  7.726170 20.954700 19.119500
89   1  0.8686 11.459700  9.544100  7.545180
90   1  0.8943 11.047900  9.220210 18.482100
91   1  0.8509 11.114200 21.104100  6.712830
92   1  0.7719 11.984500 21.148800 18.700500
93   1  0.8730 15.327800  8.731820  6.587900
94   1  0.9037 15.577200  9.095840 18.881700
95   1  0.8395 16.067500 21.272300  6.355330
96   1  0.8341 15.893100 20.711600 18.942900
97   1  0.8520  3.126330  7.250860 12.496800
98   1  0.8417  2.803850  7.773370  0.264752
99   1  0.7797  3.473960 19.269400 12.591100
100  1  0.9038  2.822080 18.498900  1.110330
101  1  0.8373  7.078260  7.485940 13.319100
102  1  0.8620  7.012650  7.613690  0.393194
103  1  0.8460  7.570230 19.222600 13.101100
104  1  0.8291  6.728730 19.284400  0.881912
105  1  0.8003 11.518900  7.360110 12.620400
106  1  0.8026 11.445700  7.388700  0.660378
107  1  0.8095 11.107900 19.395200 12.519700
108  1  0.8750 11.537800 19.044600  0.807433
109  1  0.8266 15.381800  7.421840 13.373600
110  1  0.8354 15.295500  7.442560  0.918429
111  1  0.7877 15.567500 18.748700 13.445100
112  1  0.8024 15.356400 19.236800  0.346856
113  1  0.7918  0.995417  3.842710  0.438252
114  1  0.8958  0.879965  3.256450 12.466600
115  1  0.8130  0.986539 15.154400  0.248743
116  1  0.7588  1.613440 15.514500 12.470900
117  1  0.8505  5.412970  3.291490 24.231100
118  1  0.8257  5.309600  3.512890 12.021000
119  1  0.7861  5.110840 14.893200  0.488914
120  1  0.7406  5.160940 15.260600 12.111300
121  1  0.8338  9.368550  3.687300  0.551293
122  1  0.8638  9.249620  3.576590 13.015400
123  1  0.8738  9.684390 15.430700  0.553217
124  1  0.8932  9.174910 15.173300 12.676700
125  1  0.8687 13.522200  3.290670 24.074300
126  1  0.7636 13.349300  2.825760 12.355800
127  1  0.8203 13.631500 15.093600  0.134483
128  1  0.7143 14.207400 15.059200 12.131100
129  2 -0.4619  0.727097  3.030490  8.890600
130  2 -0.4060  1.376100  3.298100 21.378500
131  2 -0.5395  0.839736 14.614100  9.396610
132  2 -0.4936  0.851697 14.296100 21.659500
133  2 -0.6141  5.568570  2.843530  8.817980
134  2 -0.5538  5.540500  3.100870 20.918300
135  2 -0.5823  5.132060 14.633800  8.822400
136  2 -0.5221  5.503440 14.791100 21.080000
137  2 -0.3901  8.623610  2.897850  9.098770
138  2 -0.4636  9.102140  3.579020 21.215100
139  2 -0.3926  8.910320 14.705100  9.089770
140  2 -0.5015  9.595680 14.954600 21.407600
141  2 -0.4971 13.401300  3.223200  8.616600
142  2 -0.5934 13.463200  3.278590 21.163600
143  2 -0.5684 12.878700 15.212600  8.767870
144  2 -0.4558 13.621000 14.882600 21.518100
145  2 -0.4890  2.709220  7.876340  3.869310
146  2 -0.5123  3.323270  7.696160 15.753300
147  2 -0.4861  3.201420 19.420300  3.675330
148  2 -0.5483  3.152520 19.375800 16.601400
149  2 -0.5120  6.912540  7.872050  4.289060
150  2 -0.4823  7.212180  8.169340 16.135100
151  2 -0.5758  6.865100 19.214200  4.021480
152  2 -0.4964  7.315860 19.842600 16.291800
153  2 -0.4903 11.105200  7.961960  3.911150
154  2 -0.4887 11.393500  7.798190 16.191200
155  2 -0.5212 11.374100 19.257300  4.165140
156  2 -0.4619 11.642200 19.448700 15.898700
157  2 -0.5696 15.199800  7.647130  4.155710
158  2 -0.5532 15.277100  7.736180 16.391100
159  2 -0.4896 15.942200 19.333300  4.029880
160  2 -0.5339 15.723600 18.794800 16.420900
161  2 -0.4700  3.038280  9.308260  9.971870
162  2 -0.5279  2.954790  9.210390 22.033100
163  2 -0.4557  2.986120 19.885400  9.217330
164  2 -0.3681  2.726330 20.817400 22.317700
165  2 -0.4123  7.428440  8.954020 10.498600
166  2 -0.6584  6.809970  8.949130 22.276100
167  2 -0.4198  7.088770 20.354700 10.473300
168  2 -0.4702  7.124900 20.309800 22.062000
169  2 -0.5546 11.366700  8.602480 10.003500
170  2 -0.5202 11.565900  8.611970 22.129400
171  2 -0.5986 10.890800 21.006400  9.566460
172  2 -0.4789 11.395900 20.419600 22.382300
173  2 -0.5719 15.250500  8.984370 10.652400
174  2 -0.3832 15.509900  9.131380 22.323800
175  2 -0.4576 15.386900 20.593700  9.355550
176  2 -0.5787 15.755100 20.605500 21.868000
177  2 -0.5822  0.286297  1.993180  2.910070
178  2 -0.5557  1.088620  1.817220 14.851600
179  2 -0.4954  0.284001 13.458600  2.704870
180  2 -0.4446  0.989395 13.042600 14.584400
181  2 -0.5293  5.105890  2.341170  2.468600
182  2 -0.4226  5.127700  1.661290 14.960000
183  2 -0.5769  5.043930 13.223300  2.855020
184  2 -0.5296  5.424720 13.836700 15.069700
185  2 -0.5554  9.719920  2.038500  2.917770
186  2 -0.5924  9.008700  2.116910 15.462300
187  2 -0.4960  8.824510 13.639300  2.852610
188  2 -0.5870  9.447990 13.802300 15.069600
189  2 -0.5389 13.303100  1.624850  2.221920
190  2 -0.5952 13.672600  2.046890 15.250300
191  2 -0.5594 13.447400 13.613600  3.308300
192  2 -0.5510 13.871400 13.414800 15.315000
193  2 -0.4502  0.375619 10.518700  4.971850
194  2 -0.5349  0.934740 10.371400 16.862500
195  2 -0.5782  1.247560 22.170600  4.834810
196  2 -0.4670  0.925343 22.157000 16.405600
197  2 -0.5126  4.870500 10.494200  5.111480
198  2 -0.5038  5.647790 11.059600 17.118100
199  2 -0.4903  5.067170 22.728000  4.383950
200  2 -0.5589  5.700330 22.452600 17.439600
201  2 -0.4502  9.648430 10.647600  5.511550
202  2 -0.5836  9.351980 11.098400 17.176900
203  2 -0.5996  9.068660 22.137900  4.690870
204  2 -0.5652  9.632400 22.715600 16.884400
205  2 -0.5417 13.735100 10.688400  5.483520
206  2 -0.5202 13.599500 10.399800 17.281300
207  2 -0.4948 13.293600 22.187200  5.197770
208  2 -0.4942 14.357800 22.173300 17.279600
209  2 -0.6579  3.026930  0.268079  8.428720
210  2 -0.5818  3.295380  0.833975 19.949200
211  2 -0.5900  2.713540 12.059300  7.888610
212  2 -0.5328  3.398980 12.078700 19.880400
213  2 -0.5338  7.249140 23.306700  7.836540
214  2 -0.5312  7.734040  0.279503 20.412500
215  2 -0.4397  7.162690 11.815800  7.916540
216  2 -0.5125  6.945870 11.912300 20.000700
217  2 -0.5981 11.241400  0.560224  7.497280
218  2 -0.4945 11.663600  0.471149 20.395800
219  2 -0.5533 11.524000 11.864000  8.866650
220  2 -0.5351 11.686900 11.886100 19.815100
221  2 -0.5503 15.487500  0.617198  7.439620
222  2 -0.5004 16.428900  0.438247 19.961000
223  2 -0.5564 15.250500 11.935900  8.306350
224  2 -0.4544 16.224700 12.014000 19.518800
225  2 -0.5131  3.421850  5.025620  1.418080
226  2 -0.4979  3.227960  4.579190 13.875500
227  2 -0.6863  2.789430 16.187300  2.021020
228  2 -0.6172  3.072030 16.892800 14.034700
229  2 -0.4547  7.276570  4.768220  1.990510
230  2 -0.6923  7.640370  5.109570 14.420800
231  2 -0.5041  7.140070 16.331900  1.898470
232  2 -0.4794  7.426450 16.610100 14.509500
233  2 -0.5512 11.562100  4.965880  2.167700
234  2 -0.5875 11.792400  4.516090 14.028400
235  2 -0.5978 11.573600 16.597100  1.899970
236  2 -0.5044 11.248300 16.931700 13.970500
237  2 -0.5227 15.196900  4.687080  1.695860
238  2 -0.4886 16.263800  5.018090 14.037400
239  2 -0.5576 15.447400 16.602400  1.902850
240  2 -0.5527 16.253600 16.006500 14.368600
241  2 -0.4767  1.060970  5.783500 11.302600
242  2 -0.5304  0.595880  6.608130 23.775900
243  2 -0.4849  0.554584 18.506700 11.122200
244  2 -0.6038  0.790584 17.848200 23.592300
245  2 -0.5719  5.331480  6.185520 11.177200
246  2 -0.5532  5.342510  6.062010 23.196700
247  2 -0.5964  5.057340 17.383500 10.725200
248  2 -0.5376  4.726710 18.010000 23.773400
249  2 -0.4953  9.304990  6.175370 11.368200
250  2 -0.6338  8.951600  6.369180 23.575900
251  2 -0.5137  9.206980 17.681000 10.987800
252  2 -0.4919  9.528700 17.908000 23.787700
253  2 -0.5407 13.782500  5.552730 11.425200
254  2 -0.4705 13.485000  6.292320 23.019900
255  2 -0.5091 13.641400 18.038800 10.940200
256  2 -0.5641 13.154400 17.876800 23.460500
257  2 -0.5472  0.592997  9.901590  1.322420
258  2 -0.5078  0.526977  9.599720 13.538100
259  2 -0.5000  0.805422 21.047600  1.184080
260  2 -0.5649  1.176320 21.369100 12.895200
261  2 -0.5674  4.872980  9.648640  0.898677
262  2 -0.5450  4.935130  9.602520 12.851100
263  2 -0.4207  4.845150 21.521600  1.047330
264  2 -0.5370  5.373880 21.357600 13.464800
265  2 -0.6481  9.348640  9.376350  1.040550
266  2 -0.5502  9.715190  9.686550 14.080700
267  2 -0.6820  9.107160 21.356100  1.270890
268  2 -0.6358  9.331130 21.136600 13.480300
269  2 -0.6912 13.553400  9.577080  0.936240
270  2 -0.6340 13.213500  9.648720 13.970700
271  2 -0.7499 13.530200 21.112200  1.271840
272  2 -0.4493 13.585600 21.119500 13.974300
273  2 -0.6205  2.973630  1.570830 11.793300
274  2 -0.5874  2.797890  1.799430 24.054800
275  2 -0.5015  3.006160 12.370100 11.875400
276  2 -0.6474  2.852450 13.174200 24.254900
277  2 -0.5337  6.995260  1.426900 12.247400
278  2 -0.6160  7.470660  1.394080 23.988900
279  2 -0.5626  7.693470 13.075000 11.732600
280  2 -0.4648  7.587120 12.634400 23.828000
281  2 -0.6576 10.625700  2.256200 11.360400
282  2 -0.5605 11.182100  1.452160 23.787300
283  2 -0.5849 11.433100 13.239700 12.198500
284  2 -0.6109 11.532000 13.530800 23.934400
285  2 -0.6068 15.472500  0.851917 11.580500
286  2 -0.6773 15.219100  1.443540 23.621400
287  2 -0.5315 16.141000 12.920500 11.917200
288  2 -0.6382 15.687800 13.170800 23.690800
289  2 -0.7660  3.053960  4.286740  5.254460
290  2 -0.6492  3.310540  3.745370 17.538500
291  2 -0.6697  2.864590 16.058900  5.775320
292  2 -0.6523  3.194760 15.130300 17.450700
293  2 -0.6776  7.557000  3.865350  5.508070
294  2 -0.6180  7.246600  3.787130 17.824900
295  2 -0.5430  7.544340 15.368500  5.641260
296  2 -0.5977  7.425640 15.498600 18.129100
297  2 -0.5556 11.000900  4.003560  6.221000
298  2 -0.5971 11.442600  4.087920 18.140400
299  2 -0.5184 11.399200 15.870600  5.709360
300  2 -0.6314 11.767600 15.425100 17.958700
301  2 -0.5420 15.162000  4.422950  5.275600
302  2 -0.6003 16.077700  3.931470 17.404500
303  2 -0.5394 15.727600 15.305600  5.370380
304  2 -0.5081 15.507700 15.538100 18.018100
305  2 -0.5475  0.574142  7.162120  7.539490
306  2 -0.6274  0.080790  6.895990 19.493200
307  2 -0.4933  0.651509 18.364200  7.059920
308  2 -0.5525  1.027890 18.487800 19.396600
309  2 -0.7064  4.704970  6.962600  7.244930
310  2 -0.7260  5.180560  7.240380 18.985200
311  2 -0.5636  5.508910 18.815700  7.420210
312  2 -0.5623  4.796690 18.216000 19.905900
313  2 -0.5594  8.948700  7.135050  7.509300
314  2 -0.7017  9.371980  7.471260 19.459200
315  2 -0.6367  9.156280 18.889700  7.273690
316  2 -0.6998  9.334180 19.067000 19.705900
317  2 -0.6081 13.170400  7.201470  7.275610
318  2 -0.5113 13.376800  7.350930 19.271600
319  2 -0.5051 13.185900 18.628100  6.995490
320  2 -0.4981 13.434300 18.539300 19.463300

