Generated by pymatgen.io.lammps.data.LammpsData

320  atoms

  2  atom types

0.000000 16.698773  xlo xhi
0.000000 23.087440  ylo yhi
0.000000 24.472453  zlo zhi

Masses

1  208.9804
2   78.9600

Atoms

1    1  0.8450  0.978898 11.145100 10.620700
2    1  0.8458  0.988372 11.141800 22.858000
3    1  0.8460  0.970641 22.678900 10.607700
4    1  0.8483  0.997370 22.706700 22.840800
5    1  0.8449  5.141360 11.139600 10.608200
6    1  0.8529  5.133330 11.186800 22.891600
7    1  0.8456  5.150550 22.664800 10.610000
8    1  0.8482  5.131550 22.710800 22.852300
9    1  0.8491  9.337300 11.148500 10.621000
10   1  0.8474  9.331800 11.161100 22.884800
11   1  0.8456  9.329320 22.695700 10.600200
12   1  0.8492  9.337970 22.709400 22.873400
13   1  0.8460 13.483900 11.145500 10.617500
14   1  0.8505 13.475600 11.169600 22.888500
15   1  0.8452 13.487700 22.666900 10.604500
16   1  0.8475 13.469700 22.712800 22.871500
17   1  0.8453  3.075960  0.502096  1.657270
18   1  0.8428  3.053480  0.497487 13.890800
19   1  0.8453  3.070330 12.048500  1.656810
20   1  0.8437  3.054600 12.046000 13.893400
21   1  0.8442  7.209070  0.513420  1.649310
22   1  0.8447  7.255710  0.487754 13.905300
23   1  0.8444  7.223650 12.033300  1.666170
24   1  0.8425  7.228680 12.041000 13.893200
25   1  0.8489 11.439300  0.497526  1.647400
26   1  0.8438 11.393600  0.490248 13.889100
27   1  0.8444 11.407800 12.045200  1.650830
28   1  0.8458 11.401300 12.032400 13.878800
29   1  0.8440 15.562600  0.518720  1.653000
30   1  0.8414 15.595000  0.492250 13.896600
31   1  0.8419 15.566000 12.041400  1.666970
32   1  0.8410 15.586000 12.045700 13.887900
33   1  0.8491  3.064840  5.392230  7.702830
34   1  0.8482  3.083930  5.362520 19.964500
35   1  0.8485  3.064750 16.925300  7.726680
36   1  0.8450  3.087300 16.890000 19.986700
37   1  0.8478  7.220840  5.379610  7.747500
38   1  0.8477  7.219470  5.368020 19.988900
39   1  0.8511  7.239780 16.931500  7.742510
40   1  0.8470  7.208400 16.909200 19.985400
41   1  0.8497 11.415000  5.385380  7.727810
42   1  0.8475 11.435700  5.369610 19.962600
43   1  0.8480 11.413000 16.931200  7.755880
44   1  0.8445 11.421600 16.897900 19.962800
45   1  0.8462 15.576600  5.398050  7.695430
46   1  0.8421 15.554900  5.355030 19.988900
47   1  0.8476 15.583000 16.922900  7.700010
48   1  0.8457 15.548300 16.910400 19.963800
49   1  0.8442  0.987115  6.281930  4.468710
50   1  0.8414  0.976309  6.251590 16.718100
51   1  0.8414  0.963332 17.808800  4.465070
52   1  0.8417  0.993740 17.818500 16.686300
53   1  0.8454  5.127420  6.251880  4.450890
54   1  0.8474  5.149210  6.255270 16.699500
55   1  0.8468  5.149230 17.794400  4.453280
56   1  0.8458  5.138060 17.816500 16.662200
57   1  0.8470  9.335510  6.279830  4.466490
58   1  0.8435  9.319070  6.250910 16.679200
59   1  0.8448  9.318280 17.819400  4.428040
60   1  0.8448  9.315010 17.804400 16.687900
61   1  0.8438 13.466300  6.275780  4.468630
62   1  0.8457 13.476100  6.252310 16.701100
63   1  0.8459 13.480100 17.796800  4.474870
64   1  0.8434 13.491900 17.803600 16.688700
65   1  0.8476  0.966759  2.041370  5.886850
66   1  0.8465  0.974408  2.084390 18.115900
67   1  0.8448  0.949264 13.605600  5.888760
68   1  0.8449  0.977833 13.601000 18.126100
69   1  0.8465  5.158140  2.061780  5.891220
70   1  0.8494  5.139820  2.066200 18.101200
71   1  0.8462  5.179800 13.615800  5.900840
72   1  0.8472  5.148510 13.621200 18.093800
73   1  0.8477  9.347760  2.030720  5.900670
74   1  0.8476  9.314180  2.093390 18.105900
75   1  0.8457  9.313980 13.589800  5.889380
76   1  0.8444  9.304970 13.617400 18.113800
77   1  0.8453 13.477000  2.075440  5.893530
78   1  0.8513 13.504700  2.087570 18.107400
79   1  0.8471 13.492900 13.611700  5.906260
80   1  0.8478 13.509700 13.638800 18.091300
81   1  0.8520  3.072430  9.616660  6.330190
82   1  0.8433  3.027530  9.645870 18.556700
83   1  0.8471  3.053420 21.185700  6.317100
84   1  0.8445  3.060630 21.196300 18.545900
85   1  0.8470  7.204790  9.607220  6.324230
86   1  0.8449  7.267600  9.644520 18.551600
87   1  0.8458  7.248820 21.184600  6.319780
88   1  0.8443  7.237650 21.192300 18.543800
89   1  0.8512 11.407700  9.620960  6.338390
90   1  0.8462 11.367800  9.650890 18.546700
91   1  0.8468 11.407100 21.154600  6.312710
92   1  0.8450 11.406800 21.202600 18.548200
93   1  0.8481 15.568000  9.628600  6.315590
94   1  0.8440 15.623000  9.630740 18.529900
95   1  0.8469 15.600900 21.169600  6.305850
96   1  0.8446 15.584800 21.195800 18.536100
97   1  0.8494  3.080290  7.857950 12.478900
98   1  0.8511  3.054030  7.820940  0.255463
99   1  0.8466  3.072350 19.384300 12.494200
100  1  0.8486  3.037210 19.368000  0.224611
101  1  0.8460  7.218530  7.854140 12.491900
102  1  0.8458  7.251600  7.841920  0.225740
103  1  0.8494  7.218010 19.392500 12.488100
104  1  0.8444  7.247080 19.351400  0.222430
105  1  0.8507 11.423000  7.844280 12.501500
106  1  0.8461 11.383300  7.839050  0.221401
107  1  0.8496 11.420300 19.394300 12.484600
108  1  0.8470 11.394500 19.374700  0.229076
109  1  0.8475 15.566600  7.846360 12.470000
110  1  0.8463 15.608500  7.829680  0.225052
111  1  0.8492 15.567200 19.398400 12.474200
112  1  0.8466 15.605300 19.368900  0.216839
113  1  0.8464  0.942393  3.819320 24.305600
114  1  0.8451  0.971597  3.877950 12.046200
115  1  0.8485  0.981800 15.395300 24.284400
116  1  0.8475  0.985647 15.398300 12.060800
117  1  0.8480  5.165880  3.857380 24.248000
118  1  0.8419  5.166910  3.896640 12.056100
119  1  0.8491  5.168330 15.378800 24.273700
120  1  0.8439  5.144570 15.438100 12.035300
121  1  0.8433  9.309180  3.865490 24.303100
122  1  0.8446  9.315420  3.848540 12.026500
123  1  0.8471  9.324000 15.399900 24.280600
124  1  0.8467  9.331900 15.418300 12.028900
125  1  0.8475 13.514700  3.860560 24.255500
126  1  0.8425 13.507200  3.868970 12.053700
127  1  0.8496 13.487100 15.387500 24.287600
128  1  0.8469 13.480100 15.416400 12.034500
129  2 -0.5306  0.963368  3.685270  8.426190
130  2 -0.5343  0.984463  3.646460 20.679000
131  2 -0.5346  0.961286 15.208400  8.415410
132  2 -0.5303  0.954214 15.179400 20.687800
133  2 -0.5369  5.132890  3.672460  8.436900
134  2 -0.5405  5.138820  3.647230 20.655500
135  2 -0.5354  5.147810 15.221200  8.469960
136  2 -0.5400  5.154150 15.183000 20.664600
137  2 -0.5336  9.325150  3.663090  8.435820
138  2 -0.5331  9.333130  3.670880 20.691000
139  2 -0.5353  9.319950 15.208100  8.439680
140  2 -0.5307  9.315360 15.183000 20.693600
141  2 -0.5368 13.504400  3.665830  8.430250
142  2 -0.5442 13.481700  3.649020 20.663100
143  2 -0.5361 13.512300 15.211600  8.461570
144  2 -0.5409 13.492500 15.194600 20.646700
145  2 -0.5426  3.051340  8.028710  3.828020
146  2 -0.5314  3.056860  8.049600 16.057500
147  2 -0.5318  3.067650 19.571500  3.800040
148  2 -0.5406  3.053280 19.602700 16.043300
149  2 -0.5322  7.211800  8.034520  3.792750
150  2 -0.5332  7.245240  8.054290 16.043200
151  2 -0.5318  7.211500 19.592700  3.789180
152  2 -0.5368  7.245960 19.592200 16.042100
153  2 -0.5391 11.413700  8.046820  3.830580
154  2 -0.5337 11.404100  8.046730 16.028800
155  2 -0.5355 11.430600 19.581900  3.791980
156  2 -0.5334 11.409600 19.590900 16.036300
157  2 -0.5338 15.585800  8.042190  3.795360
158  2 -0.5322 15.583200  8.043460 16.047700
159  2 -0.5353 15.576400 19.578100  3.808600
160  2 -0.5336 15.569700 19.603500 16.038800
161  2 -0.5363  3.053600  9.416250  9.912650
162  2 -0.5327  3.095260  9.439780 22.172900
163  2 -0.5360  3.048360 20.965700  9.905230
164  2 -0.5387  3.067800 20.993000 22.153100
165  2 -0.5355  7.253570  9.432060  9.916850
166  2 -0.5306  7.205370  9.469580 22.145700
167  2 -0.5366  7.257860 20.959000  9.924550
168  2 -0.5309  7.231590 20.976000 22.160700
169  2 -0.5366 11.396100  9.432690  9.932430
170  2 -0.5372 11.415700  9.450590 22.161600
171  2 -0.5365 11.391600 20.957300  9.908520
172  2 -0.5378 11.408900 20.994300 22.155000
173  2 -0.5349 15.572300  9.440740  9.909260
174  2 -0.5292 15.563200  9.444170 22.144000
175  2 -0.5362 15.581300 20.957800  9.913830
176  2 -0.5296 15.583600 20.980600 22.150600
177  2 -0.5337  0.976160  2.289810  2.343600
178  2 -0.5372  0.986116  2.281470 14.541900
179  2 -0.5367  0.974245 13.826700  2.294790
180  2 -0.5395  0.968978 13.823200 14.553700
181  2 -0.5415  5.151160  2.257700  2.297900
182  2 -0.5308  5.151060  2.299090 14.548300
183  2 -0.5417  5.149380 13.793700  2.315500
184  2 -0.5365  5.156560 13.824400 14.539500
185  2 -0.5300  9.340040  2.275510  2.333450
186  2 -0.5402  9.322120  2.264500 14.542100
187  2 -0.5381  9.318130 13.815000  2.302780
188  2 -0.5345  9.328490 13.821000 14.534900
189  2 -0.5428 13.486500  2.248990  2.295380
190  2 -0.5316 13.490900  2.299500 14.546400
191  2 -0.5405 13.491800 13.792800  2.329210
192  2 -0.5350 13.479200 13.818300 14.541100
193  2 -0.5037  0.975784 10.887000  4.698120
194  2 -0.5125  0.996868 10.952300 16.885300
195  2 -0.5092  0.987833 22.454000  4.664930
196  2 -0.5064  0.975125 22.475700 16.905900
197  2 -0.5052  5.147250 10.905300  4.704190
198  2 -0.4990  5.145060 10.909000 16.898500
199  2 -0.5050  5.147250 22.444900  4.704450
200  2 -0.5070  5.147030 22.487900 16.873700
201  2 -0.5026  9.311700 10.888400  4.702010
202  2 -0.5116  9.318670 10.950400 16.888700
203  2 -0.5059  9.340750 22.443300  4.655050
204  2 -0.5067  9.328220 22.485500 16.921700
205  2 -0.5047 13.476300 10.915700  4.694200
206  2 -0.4951 13.493800 10.907400 16.898400
207  2 -0.5012 13.493300 22.429500  4.697890
208  2 -0.5037 13.488900 22.500600 16.877100
209  2 -0.5006  3.059520  0.795753  7.532310
210  2 -0.4994  3.062210  0.807110 19.764800
211  2 -0.4942  3.084960 12.328800  7.536620
212  2 -0.4972  3.057110 12.354400 19.788300
213  2 -0.5049  7.243470  0.786454  7.539670
214  2 -0.4964  7.227430  0.801996 19.775100
215  2 -0.4991  7.219030 12.336000  7.552840
216  2 -0.4918  7.219740 12.354600 19.787700
217  2 -0.5031 11.413900  0.783556  7.551140
218  2 -0.4936 11.405800  0.817719 19.756200
219  2 -0.4987 11.409800 12.328100  7.551810
220  2 -0.4917 11.404500 12.341500 19.766000
221  2 -0.4981 15.570300  0.783380  7.541940
222  2 -0.4970 15.580600  0.804011 19.776600
223  2 -0.4978 15.555000 12.330000  7.556380
224  2 -0.4916 15.591100 12.344300 19.784000
225  2 -0.5002  3.076190  5.113410  1.435350
226  2 -0.5038  3.053150  5.177390 13.698300
227  2 -0.5037  3.088020 16.681400  1.435980
228  2 -0.5112  3.060940 16.705400 13.697700
229  2 -0.5085  7.203940  5.146660  1.446480
230  2 -0.5074  7.257070  5.167630 13.703700
231  2 -0.5113  7.209470 16.665500  1.434410
232  2 -0.5069  7.244620 16.721300 13.685000
233  2 -0.5027 11.428300  5.127480  1.443770
234  2 -0.5028 11.401300  5.164740 13.694200
235  2 -0.5083 11.421800 16.682100  1.436040
236  2 -0.5054 11.406300 16.709500 13.686200
237  2 -0.5052 15.570600  5.120780  1.446240
238  2 -0.5041 15.583600  5.171720 13.707600
239  2 -0.5052 15.565300 16.682600  1.420110
240  2 -0.5024 15.568400 16.703000 13.677300
241  2 -0.4895  0.977799  6.590760 10.817700
242  2 -0.4991  0.987259  6.564240 23.062100
243  2 -0.4901  0.986146 18.112200 10.834100
244  2 -0.5012  0.990257 18.099500 23.039100
245  2 -0.5022  5.146330  6.586340 10.808400
246  2 -0.4948  5.143680  6.583480 23.072800
247  2 -0.5004  5.137650 18.135900 10.816100
248  2 -0.4981  5.141120 18.095100 23.057100
249  2 -0.4892  9.320640  6.577950 10.828900
250  2 -0.5060  9.310690  6.581080 23.041200
251  2 -0.4940  9.323540 18.121800 10.821400
252  2 -0.5025  9.335640 18.096700 23.034400
253  2 -0.4976 13.489200  6.583710 10.811900
254  2 -0.4953 13.495000  6.574190 23.046800
255  2 -0.4958 13.475200 18.127800 10.812700
256  2 -0.4943 13.480900 18.100900 23.057100
257  2 -0.6630  0.983788 10.010400  0.868829
258  2 -0.6576  0.970810  9.991370 13.129000
259  2 -0.6588  0.978156 21.570700  0.865359
260  2 -0.6597  0.964592 21.540500 13.133100
261  2 -0.6572  5.145700  9.999520  0.896423
262  2 -0.6646  5.132400 10.016200 13.131000
263  2 -0.6531  5.131920 21.562000  0.881125
264  2 -0.6625  5.156130 21.547900 13.129200
265  2 -0.6664  9.321010 10.024100  0.911555
266  2 -0.6585  9.330960  9.992720 13.125900
267  2 -0.6580  9.326270 21.569400  0.892072
268  2 -0.6580  9.320690 21.547400 13.137200
269  2 -0.6582 13.484000  9.989560  0.883086
270  2 -0.6635 13.488900 10.020800 13.133000
271  2 -0.6575 13.490700 21.563900  0.887054
272  2 -0.6632 13.491300 21.544300 13.118900
273  2 -0.6419  3.056230  1.614610 11.372500
274  2 -0.6543  3.067320  1.629730 23.610800
275  2 -0.6519  3.062130 13.162100 11.378900
276  2 -0.6588  3.064440 13.172800 23.628000
277  2 -0.6491  7.236980  1.624590 11.389100
278  2 -0.6559  7.240150  1.636650 23.615400
279  2 -0.6439  7.238420 13.181500 11.375300
280  2 -0.6545  7.243240 13.172800 23.622800
281  2 -0.6496 11.398100  1.620230 11.369900
282  2 -0.6552 11.406900  1.620850 23.620800
283  2 -0.6542 11.405100 13.172400 11.375000
284  2 -0.6595 11.391600 13.172000 23.620600
285  2 -0.6479 15.600800  1.625500 11.388700
286  2 -0.6589 15.578400  1.645860 23.622100
287  2 -0.6458 15.591600 13.193200 11.374500
288  2 -0.6503 15.573600 13.177700 23.637500
289  2 -0.6607  3.053940  4.239690  5.220000
290  2 -0.6633  3.079580  4.231220 17.453600
291  2 -0.6591  3.058420 15.778300  5.236640
292  2 -0.6585  3.075370 15.780700 17.449400
293  2 -0.6531  7.255160  4.237200  5.243320
294  2 -0.6621  7.216080  4.244850 17.459500
295  2 -0.6618  7.250370 15.796600  5.238390
296  2 -0.6600  7.214270 15.780000 17.455900
297  2 -0.6636 11.385600  4.254780  5.241070
298  2 -0.6631 11.422300  4.226750 17.445800
299  2 -0.6580 11.407400 15.796800  5.244800
300  2 -0.6616 11.408200 15.770800 17.446800
301  2 -0.6559 15.578300  4.231040  5.211410
302  2 -0.6637 15.569300  4.223170 17.463500
303  2 -0.6659 15.566000 15.769500  5.213300
304  2 -0.6603 15.577500 15.766200 17.449300
305  2 -0.6541  0.975168  7.408620  6.972180
306  2 -0.6517  0.976236  7.417650 19.222200
307  2 -0.6572  0.972560 18.931600  6.960650
308  2 -0.6395  0.972607 18.968700 19.206100
309  2 -0.6593  5.139480  7.400750  6.964800
310  2 -0.6461  5.158470  7.356760 19.205100
311  2 -0.6469  5.152670 18.947300  6.969740
312  2 -0.6495  5.146280 18.897700 19.194500
313  2 -0.6515  9.334990  7.384480  6.974120
314  2 -0.6502  9.317840  7.408440 19.193000
315  2 -0.6548  9.312170 18.912600  6.945150
316  2 -0.6422  9.311670 18.963700 19.200600
317  2 -0.6585 13.493200  7.412480  6.976540
318  2 -0.6475 13.488800  7.373910 19.200000
319  2 -0.6507 13.495400 18.954100  6.988900
320  2 -0.6530 13.500500 18.911600 19.197400

