Generated by pymatgen.io.lammps.data.LammpsData

48  atoms

 2  atom types

0.000000 12.100325  xlo xhi
0.000000 12.100326  ylo yhi
0.000000 6.997800  zlo zhi

Masses

1  106.42
2   78.96

Atoms

1   1  9.769980  5.366350 0.544318
2   1  2.360130  2.731370 0.472645
3   1  4.598360  5.832480 1.297290
4   1  6.561840  1.861580 4.929920
5   1  3.130930  2.820040 3.804080
6   1  7.890760  7.997200 4.601350
7   1 11.269000  4.958470 5.376070
8   1 10.372400  3.568460 3.770900
9   1  5.668050  7.146510 4.000540
10  1  0.088239  6.375100 0.625675
11  1  2.165570  4.824790 2.434270
12  1 11.457700  1.648570 0.950658
13  1  0.430518 -0.073934 6.121110
14  1  0.632056 10.045900 4.359680
15  1  8.273700 10.542500 4.786660
16  1  9.902150  1.019000 6.164220
17  1  7.466820  3.721700 4.680640
18  1  4.275200 10.737400 5.962070
19  1  9.741910  9.542760 1.995120
20  1  1.693240  5.163320 5.046670
21  1  7.214150  4.135070 0.582801
22  1 10.271900  8.780730 6.383940
23  1  8.157820  1.920070 1.501840
24  1  1.619640 11.798400 1.340160
25  2  6.396360 10.907500 3.693640
26  2  6.229780  7.577140 1.324900
27  2  0.427278  8.880340 6.239550
28  2 10.582800  8.077630 3.911240
29  2 11.389200  5.520350 2.765160
30  2  1.855500  7.314200 4.667390
31  2  5.113050  4.746980 6.341800
32  2  4.338480  4.876150 4.103560
33  2  6.337310  9.277180 6.485610
34  2  4.607720  1.060870 4.628750
35  2  2.529000  0.306476 4.939690
36  2  1.186930  2.569950 5.384880
37  2  5.986810  1.294370 0.401901
38  2  7.738960  6.357960 6.716040
39  2  7.365430 10.306200 1.439340
40  2  3.906460 10.333700 1.688710
41  2  9.298100  3.780790 6.094060
42  2  2.109820  7.550160 1.091620
43  2 10.124000  0.061987 1.735600
44  2 11.496500  0.193082 3.980120
45  2  0.925615  2.562940 2.487560
46  2  8.496100  6.052500 3.218490
47  2  1.067480  9.621330 1.848920
48  2  8.752870  1.743420 3.632810

