Generated by pymatgen.io.lammps.data.LammpsData

360  atoms

  2  atom types

0.000000 16.677463  xlo xhi
0.000000 21.699897  ylo yhi
0.000000 28.493178  zlo zhi

Masses

1  208.9804
2   78.9600

Atoms

1    1  0.7585  1.608480 12.953300 20.364100
2    1  0.7221  4.082370 16.422300 19.713700
3    1  0.8035  1.748610  5.537990 21.068200
4    1  0.7868  3.816480  9.142810 20.464000
5    1  0.7706  6.003580 12.461000 20.608600
6    1  0.7464  8.256610 15.825500 21.019600
7    1  0.8037  1.596180 20.213400 20.175900
8    1  0.8468  3.973220  1.325950 20.446600
9    1  0.7822  5.605160  5.930670 20.897100
10   1  0.7519  8.217010  8.803060 20.433200
11   1  0.7123 10.715100 13.169400 20.553300
12   1  0.7668 12.413700 16.455400 20.579200
13   1  0.8218  6.560610 19.375900 20.325100
14   1  0.7799  7.926770  1.762860 20.648900
15   1  0.8232 10.511000  5.357700 20.868400
16   1  0.7932 12.252900  8.559630 21.479700
17   1  0.8228 14.199600 12.427700 20.836400
18   1  0.7086 16.019000 17.078700 20.518900
19   1  0.7575 10.208700 20.096400 20.059900
20   1  0.7592 12.266200  1.958330 20.847300
21   1  0.8070 14.788700  5.864840 20.640700
22   1  0.7973 16.443300  9.024640 20.637400
23   1  0.7862 14.294300 20.603800 20.424800
24   1  0.8149 16.075500  2.046330 20.556900
25   1  0.7144  1.908630 12.520900 26.915600
26   1  0.8028  3.758390 16.419100 26.273300
27   1  0.6869  0.949211  6.039620 26.685300
28   1  0.8060  4.171760  9.608650 26.315200
29   1  0.7868  6.611200 13.279100 26.089500
30   1  0.8286  8.168590 16.682800 26.164700
31   1  0.7735  1.909650 20.295800 26.432700
32   1  0.8036  3.862270  1.844040 26.622700
33   1  0.7920  6.119460  5.781620 26.643500
34   1  0.8695  7.700670  9.175760 26.865400
35   1  0.8352 10.765300 12.341900 26.246600
36   1  0.8731 12.379100 16.599200 27.068700
37   1  0.6588  6.351170 20.254600 27.107100
38   1  0.7524  7.787430  2.151300 26.271400
39   1  0.7583 10.092900  5.972430 27.832500
40   1  0.7908 12.346700  8.617950 26.581100
41   1  0.8338 14.390400 13.408100 26.747400
42   1  0.8526 16.427500 16.896400 26.543600
43   1  0.8020 10.471100 20.549400 26.246600
44   1  0.7735 11.860600  2.386380 27.056500
45   1  0.7787 14.122700  5.382110 26.648500
46   1  0.7988  0.059994  9.441210 26.587600
47   1  0.7309 14.691600 20.222400 27.340300
48   1  0.7396 16.404400  1.949840 26.865400
49   1  0.7437  2.356820 15.082100  1.158970
50   1  0.7674  3.973030 18.502200  1.217790
51   1  0.9105  2.117180  8.340750  2.131240
52   1  0.8555  3.910690 11.747500  1.885940
53   1  0.7891  6.370770 15.257100  1.334610
54   1  0.8260  8.478410 18.835200  1.468260
55   1  0.7850  2.390950  1.019860  1.520170
56   1  0.8089  4.064250  4.833260  1.556200
57   1  0.9082  6.147320  8.311330  1.798060
58   1  0.7239  7.744720 12.131200  0.954436
59   1  0.7953 11.012800 15.563500  2.001010
60   1  0.6668 12.253100 19.221000  1.517940
61   1  0.8505  6.109420  0.930715  1.940680
62   1  0.7668  8.057860  4.907940  2.025220
63   1  0.7242  9.976810  8.459330  1.796340
64   1  0.7086 12.210400 11.629600  1.455670
65   1  0.8097 15.102200 15.245300  2.027700
66   1  0.7593 16.279600 19.044300  1.859800
67   1  0.7467 10.588700  0.979497  2.198380
68   1  0.7878 12.075800  4.492100  1.870420
69   1  0.8487 14.377900  8.538180  1.828980
70   1  0.7650 16.539700 11.854100  1.398950
71   1  0.6933 14.538200  0.872248  2.001010
72   1  0.8411 16.449300  5.193660  2.353970
73   1  0.7164  2.061850 15.306700  8.151350
74   1  0.8314  3.807310 19.546900  7.975140
75   1  0.8546  1.717510  8.233130  7.561270
76   1  0.7676  4.204190 12.042700  7.629520
77   1  0.8654  5.851380 15.300300  7.488260
78   1  0.8497  7.748410 18.995300  7.032320
79   1  0.7762  1.908460  1.588270  7.493780
80   1  0.7162  4.381670  4.944200  7.625200
81   1  0.7072  6.263840  8.332990  8.379630
82   1  0.7792  8.461550 12.026700  7.938220
83   1  0.8040 10.283600 15.572600  8.508570
84   1  0.8630 11.664300 19.411100  7.592000
85   1  0.7962  6.089090  0.735304  8.030500
86   1  0.7067  8.388380  4.776630  7.842950
87   1  0.7570 10.394500  8.403580  7.560680
88   1  0.8777 10.399600 12.039700  5.022450
89   1  0.8491 14.272100 15.574100  7.807940
90   1  0.8174 16.199800 19.411300  8.231230
91   1  0.8223  9.839860  0.949430  7.791560
92   1  0.7221 11.940500  5.358340  7.328990
93   1  0.8422 14.748700  7.988480  7.075020
94   1  0.8474 16.048600 12.265500  7.025530
95   1  0.7959 14.214200  2.073570  6.835120
96   1  0.7167  0.185282  4.864920  7.784460
97   1  0.7350 16.585500 14.579800 11.258400
98   1  0.7191  2.117420 17.797200 11.098900
99   1  0.8097 16.458900  6.731430 11.091500
100  1  0.8367  1.615990 10.260800 12.452400
101  1  0.6617  3.775980 13.997500 10.762500
102  1  0.8208  6.368060 17.532500 11.044800
103  1  0.7756 16.541300 21.099600 11.763500
104  1  0.7141  2.085140  3.366980 11.170500
105  1  0.8279  4.188530  6.920250 11.435800
106  1  0.8519  6.319570 10.522200 11.134100
107  1  0.7756  8.055640 14.149900 11.686500
108  1  0.6883 10.349800 17.720400 11.086200
109  1  0.8005  4.160840 21.255000 11.601000
110  1  0.8190  6.457600  3.345170 11.472300
111  1  0.8071  8.629530  6.714140 11.170800
112  1  0.8836 10.617300 10.337800 11.318800
113  1  0.7863 12.735600 13.926100 11.095000
114  1  0.7779 14.816300 18.066400 11.424100
115  1  0.8245  7.723750 21.338600 11.444400
116  1  0.7477 10.268600  2.933360 10.695300
117  1  0.7673 12.584700  6.768590 10.488700
118  1  0.8151 14.659200 10.789300 10.988700
119  1  0.7879 11.884000 21.064100 11.112800
120  1  0.8231 14.259500  3.479890 11.237700
121  1  0.8883 16.066100 13.793200 16.758600
122  1  0.7561  1.458120 17.788300 17.320800
123  1  0.8185  0.473471  7.103840 16.436000
124  1  0.7360  1.965650 10.536200 17.247200
125  1  0.8703  3.983730 13.894800 16.562200
126  1  0.8436  6.149350 17.477400 17.247600
127  1  0.7797  0.075114 21.629400 16.954300
128  1  0.7707  1.522730  3.272840 17.667200
129  1  0.8303  4.475890  6.707790 17.223700
130  1  0.7526  6.151310 10.232100 17.050000
131  1  0.7910  7.976350 14.143200 17.242800
132  1  0.7972 10.870300 18.283600 16.660600
133  1  0.8031  3.724980 21.273600 17.000300
134  1  0.7530  5.617910  3.472610 17.568600
135  1  0.8215  8.282260  6.848440 17.298700
136  1  0.7674  9.985060 10.120200 16.741300
137  1  0.7997 11.891000 14.109700 17.058500
138  1  0.7683 14.624300 17.841200 17.421600
139  1  0.8046  7.847870 21.334500 17.257600
140  1  0.8438  9.985010  2.940150 16.671500
141  1  0.7853 12.392400  6.620330 17.222900
142  1  0.7664 14.178500  9.763660 17.293200
143  1  0.7767 12.443600  0.014237 17.123200
144  1  0.8731 14.052000  3.255250 16.938800
145  2 -0.8860  0.002968 14.256300  0.076704
146  2 -0.8905  2.172320 17.695800 27.989500
147  2 -0.7962 16.558400  7.464520  0.472053
148  2 -0.8513  2.274590 10.216100  0.355927
149  2 -0.9057  4.257760 13.798600 28.335500
150  2 -0.8702  6.232670 17.576000  0.035722
151  2 -0.9139  0.072798 21.393500  0.062022
152  2 -0.7904  2.522780  3.371450 28.404900
153  2 -0.7311  3.986810  7.237730  0.191821
154  2 -0.8708  6.139110 10.329100  0.006872
155  2 -0.7158  8.543650 14.899200 28.094100
156  2 -0.8033 10.287900 17.931300 27.942300
157  2 -0.8891  4.151810 21.378900 28.391500
158  2 -0.7718  5.947480  3.251420  0.059722
159  2 -0.9491  7.779830  7.140700  0.266288
160  2 -0.8646 10.367400 10.426000 27.821600
161  2 -0.8136 12.897700 14.284300  0.031059
162  2 -0.8902 14.519600 17.539300  0.092183
163  2 -0.7465  8.251260  0.135601  0.500362
164  2 -0.8500  9.839570  3.585000  0.043862
165  2 -0.8617 12.573700  6.716350  0.102007
166  2 -0.7809 14.699600 10.709900 27.971100
167  2 -0.8779 12.098600 21.414200 28.212400
168  2 -0.8160 14.362200  3.263200 28.403700
169  2 -0.3933  1.472760 15.417000 25.339400
170  2 -0.1685  3.946060 18.758300 24.247200
171  2 -0.4318  2.048630  8.452070 25.168200
172  2 -0.2827  3.315590 12.696500 24.734400
173  2 -0.4360  5.933510 15.105100 24.707800
174  2 -0.3101  7.626560 18.478900 24.383100
175  2 -0.3056  2.090690  1.438790 24.762600
176  2 -0.2578  4.074220  4.070350 24.819000
177  2 -0.4087  5.729210  8.191340 24.981100
178  2 -0.4758  7.808330 11.251300 25.201500
179  2 -0.4626 10.709900 14.945600 25.679600
180  2 -0.3573 12.968100 19.092800 25.523200
181  2 -0.3770  5.859020  0.278121 24.864900
182  2 -0.3258  8.095880  4.500710 25.110100
183  2 -0.3679  9.098150  7.628680 25.333000
184  2 -0.3577 12.768700 10.972400 24.930100
185  2 -0.3486 14.616200 15.656800 25.000900
186  2 -0.4035  0.108312 19.337200 25.095400
187  2 -0.3511 10.383300  0.927158 24.720300
188  2 -0.4013 11.842000  4.690660 25.473700
189  2 -0.4446 14.167200  7.793930 25.052900
190  2 -0.3163  0.026090 11.502500 24.892000
191  2 -0.2535 14.709300  0.419712 24.956100
192  2 -0.3772 16.319300  4.130840 24.917400
193  2 -0.3687 16.159000 14.058700 21.971400
194  2 -0.3043  2.239530 18.040500 21.964300
195  2 -0.4938 16.447000  7.053660 22.305100
196  2 -0.3225  1.736440 10.089000 22.352200
197  2 -0.3780  3.890110 14.607300 21.597500
198  2 -0.3835  5.905630 17.555500 21.904800
199  2 -0.3612 16.443300 21.404700 22.165500
200  2 -0.3637  1.796330  3.027040 21.940000
201  2 -0.3399  3.652350  6.501590 22.840800
202  2 -0.4033  5.288850 10.924200 22.279200
203  2 -0.4048  8.506170 13.917700 22.802200
204  2 -0.3935  9.697980 17.747500 22.002200
205  2 -0.3196  4.439420 21.102200 21.977200
206  2 -0.3915  5.681540  2.699420 22.039900
207  2 -0.3389  8.123420  6.329910 22.412000
208  2 -0.3016 10.156900 10.097100 22.860100
209  2 -0.4801 12.346800 14.232000 22.301000
210  2 -0.2886 14.122100 18.004500 22.391400
211  2 -0.3795  8.301520 21.484100 22.180500
212  2 -0.2946  9.937210  3.235190 22.620200
213  2 -0.3992 12.680600  5.436280 22.530600
214  2 -0.4478 14.547300  9.942480 22.122800
215  2 -0.3725 11.678800 21.027600 22.051500
216  2 -0.3016 14.580100  3.001600 22.745000
217  2 -0.6402  1.715930 11.667300  9.681140
218  2 -0.8876  4.282730 16.221000  9.105780
219  2 -0.8628  1.982290  6.214840  9.719900
220  2 -0.6954  4.290870  9.493870  9.898150
221  2 -0.8532  6.405840 12.630700  9.667820
222  2 -0.8293  7.880850 16.577000  9.180380
223  2 -0.7935  1.933970 20.428100  9.550830
224  2 -0.8087  3.970950  1.549840  9.521120
225  2 -0.9171  6.395170  5.793930  9.844790
226  2 -0.8361  8.617810  9.623200  9.753680
227  2 -0.6954 10.371300 12.833900 10.195700
228  2 -0.8282 12.460100 16.946400  9.443630
229  2 -0.8654  6.086560 19.992100  9.514520
230  2 -0.9305  8.197600  1.939950  9.640960
231  2 -1.0127 10.602400  5.876010  9.414180
232  2 -0.6374 12.363400  9.256330  9.230920
233  2 -0.7679 14.618400 13.016800  9.338890
234  2 -0.9236 16.575600 16.787200  9.745970
235  2 -0.8703  9.929010 20.239700  9.067290
236  2 -0.6829 12.771000  1.718440  9.844030
237  2 -0.9246 14.745400  5.179520  9.263850
238  2 -0.7243 16.038500  8.846520  9.269290
239  2 -0.6317 14.126700 20.615300  9.252820
240  2 -0.6137 16.457800  1.413700  9.553010
241  2 -0.4185 16.537900 14.767500  6.259580
242  2 -0.3298  1.853520 17.662200  6.760600
243  2 -0.4367 16.656500  6.853630  5.787690
244  2 -0.3737  1.798060 10.963400  6.294390
245  2 -0.4333  3.658700 14.162500  6.171730
246  2 -0.3427  5.807590 17.602100  5.953590
247  2 -0.3049 16.529300  0.202779  5.926540
248  2 -0.3892  2.409770  3.743490  5.766210
249  2 -0.4460  3.658830  7.341560  6.571170
250  2 -0.3789  6.228780 10.875700  6.127760
251  2 -0.4990  8.805600 14.485000  6.662320
252  2 -0.3669 10.615400 17.425400  6.229400
253  2 -0.4160  3.948770 21.551400  6.280270
254  2 -0.3973  6.600820  3.552480  6.334880
255  2 -0.3418  7.916850  7.468250  5.784570
256  2 -0.4502 11.116000 11.097900  7.378870
257  2 -0.3431 12.195700 14.108000  6.757080
258  2 -0.3342 14.328200 17.848800  6.413770
259  2 -0.4428  8.238250 21.575500  6.152050
260  2 -0.4964 10.470800  3.357980  6.184510
261  2 -0.3365 12.257500  7.362480  5.455750
262  2 -0.2987 14.035800 10.357900  6.135570
263  2 -0.4120 11.867200 21.613700  5.907070
264  2 -0.4424 14.990900  4.327420  5.992390
265  2 -0.3370  1.953630 12.833700  3.572480
266  2 -0.2667  4.233810 16.190000  3.342950
267  2 -0.3435  2.290770  6.197270  3.695460
268  2 -0.3650  4.093980  9.465840  3.443110
269  2 -0.4364  6.059830 12.792000  3.058410
270  2 -0.3178  8.538160 16.727500  3.387410
271  2 -0.3080  2.302730 20.340400  3.270820
272  2 -0.3520  4.472660  2.133340  3.535610
273  2 -0.3521  5.620760  6.282920  3.524240
274  2 -0.4650  8.634150  9.780130  3.547130
275  2 -0.6281  9.824640 13.119400  2.647330
276  2 -0.3528 12.611600 15.178400  3.894780
277  2 -0.3265  6.708980 19.829800  3.209790
278  2 -0.2404  8.359090  2.486560  4.019630
279  2 -0.4796 10.261000  6.236850  3.310180
280  2 -0.4058 12.426400  9.291890  3.462730
281  2 -0.4932 14.506000 12.455100  2.929770
282  2 -0.3151  0.666681 16.780400  3.259540
283  2 -0.4941 10.060200 20.124000  3.023570
284  2 -0.4938 13.400000  2.792450  3.360130
285  2 -0.3944 14.539400  6.459870  3.242990
286  2 -0.3875 16.558500  9.656450  3.417640
287  2 -0.4703 14.512500 19.621500  3.539590
288  2 -0.3708  0.048337  2.736970  3.395610
289  2 -0.7737  1.629480 15.223200 18.234600
290  2 -0.8418  4.577360 19.352100 18.354200
291  2 -0.8428  2.106740  7.943570 18.732600
292  2 -0.8631  4.316740 11.122300 18.682300
293  2 -0.8912  5.632420 14.852700 18.356000
294  2 -0.8195  8.172070 18.638000 18.580200
295  2 -0.9355  1.727210  1.057780 19.181000
296  2 -0.8398  3.673220  4.842670 19.060400
297  2 -0.9371  5.901140  7.707530 19.028800
298  2 -0.7893  8.664780 11.507300 18.991700
299  2 -0.7929  9.629950 15.720900 18.418900
300  2 -0.8728 12.609300 18.796700 19.312300
301  2 -0.8802  5.944330  0.836061 18.605100
302  2 -0.7428  8.162810  4.461160 18.366600
303  2 -0.8709 10.062400  7.606210 19.174800
304  2 -0.7494 12.154300 11.414700 19.342300
305  2 -0.8008 14.179900 15.316800 18.735000
306  2 -1.0292 16.589200 19.295400 18.925000
307  2 -0.8461 10.394200  1.113050 18.939300
308  2 -0.7779 11.856300  4.255630 18.813100
309  2 -0.8917 14.280100  7.670920 19.197100
310  2 -0.8059 16.318300 11.654100 18.810700
311  2 -0.9209 14.492600  1.021570 18.649200
312  2 -0.8140 15.795100  4.369770 18.670000
313  2 -0.4645  1.707100 12.472300 15.439300
314  2 -0.3200  4.011200 16.583600 15.618400
315  2 -0.3659  2.327310  5.424330 15.674500
316  2 -0.3657  3.710710  8.495640 15.142300
317  2 -0.4341  6.026510 12.347500 15.507600
318  2 -0.2804  8.137680 16.426400 15.225700
319  2 -0.4845  2.138030 20.183700 15.509200
320  2 -0.2715  3.979410  2.347880 15.370400
321  2 -0.3101  6.836900  5.566190 15.496700
322  2 -0.4766  8.447750  8.940040 15.379500
323  2 -0.3675  9.989920 13.164700 15.250300
324  2 -0.3614 12.608700 16.598300 15.602000
325  2 -0.2586  6.302620 19.983700 15.323600
326  2 -0.2870  7.807730  1.936440 15.322200
327  2 -0.2711 10.332100  6.008540 15.317200
328  2 -0.3326 12.518500  8.825800 15.240400
329  2 -0.4687 13.863700 12.439000 16.228100
330  2 -0.3329 16.256200 16.526200 15.611900
331  2 -0.5039 10.109500 20.828800 15.919700
332  2 -0.3838 12.548000  2.016460 15.197900
333  2 -0.3732 14.657100  5.625210 15.577100
334  2 -0.4314 16.618900  9.341000 15.076700
335  2 -0.4427 14.408900 20.503300 15.692700
336  2 -0.3338 16.313600  2.186180 15.366300
337  2 -0.3086  2.178870 15.269800 13.114400
338  2 -0.3074  4.511440 18.815300 13.050500
339  2 -0.4048  1.657150  7.518520 12.886300
340  2 -0.3712  4.302110 11.766100 12.807600
341  2 -0.4282  5.684420 15.684200 12.545200
342  2 -0.4123  8.237740 19.174200 12.801000
343  2 -0.3378  1.981130  1.122590 13.193400
344  2 -0.3348  3.881800  4.577420 12.991900
345  2 -0.3234  6.317720  7.850160 13.090700
346  2 -0.3126  8.322540 11.846700 13.311500
347  2 -0.3637 10.943200 15.326400 12.955900
348  2 -0.4309 12.475400 19.009100 12.850400
349  2 -0.4254  5.833390  1.214890 12.893600
350  2 -0.3451  8.369350  4.443650 12.910000
351  2 -0.3693 10.851600  7.491080 12.582200
352  2 -0.3167 12.677400 11.030400 13.142300
353  2 -0.3880 14.600200 15.767200 12.790000
354  2 -0.4630  0.382431 18.454400 12.883300
355  2 -0.3744  9.688970  0.775146 12.799200
356  2 -0.2806 12.058200  4.115880 12.948900
357  2 -0.3186 14.714500  8.024130 12.955000
358  2 -0.4773 16.152300 12.397200 12.657700
359  2 -0.2706 14.265800  0.942779 12.912000
360  2 -0.3243 16.499900  4.422970 12.964400

