Generated by pymatgen.io.lammps.data.LammpsData

2  atoms

1  atom types

0.000000 5.026099  xlo xhi
0.000000 3.465472  ylo yhi
0.000000 3.144919  zlo zhi
3.640354 3.640353 1.455676  xy xz yz

Masses

1  208.9804

Atoms

1  1 6.153403 2.460574 1.572459
2  1 0.000000 0.000000 0.000000

