Generated by pymatgen.io.lammps.data.LammpsData

320  atoms

  2  atom types

0.000000 24.637781  xlo xhi
0.000000 17.058433  ylo yhi
0.000000 27.370788  zlo zhi

Masses

1  208.9804
2   78.9600

Atoms

1    1  0.6726  1.760130  1.782840  1.499050
2    1  0.6663  2.642190 17.184500 17.090900
3    1  0.6062  4.170990  9.270400  4.019750
4    1  0.7945 -1.757960  7.655050 14.398300
5    1  0.6879 10.714900  5.739600  5.687290
6    1  0.7781  7.901530 13.584700 11.237600
7    1  0.7970 19.158000 13.199700  4.235610
8    1  0.6611  8.298000  6.906090 15.329500
9    1  0.7138  4.967020  6.370930 11.526400
10   1  0.6911 -0.740130 15.152400 25.079700
11   1  0.6214  2.109470 12.891300  9.557080
12   1  0.7871  3.537090 16.942500 23.865400
13   1  0.7782 15.491500  6.225010 17.671000
14   1  0.6823 15.256100  4.671260 26.115700
15   1  0.6754 15.623300 16.309700 12.170400
16   1  0.6481 18.116400 13.430000 26.958700
17   1  0.8276  4.318370 18.003900  4.924560
18   1  0.6082  7.232740  8.734480 18.847500
19   1  0.5928  3.843740 15.392000 27.355600
20   1  0.6143  4.614370 13.307400 21.789900
21   1  0.8238 16.266400  4.958990  8.179570
22   1  0.7208 17.648200 16.862000 19.586400
23   1  0.7513 18.634200 10.222500  1.636730
24   1  0.7130 15.311500 10.039100 20.354200
25   1  0.7728 21.896900 16.534500 12.028100
26   1  0.4959 21.917900  1.519820 23.830400
27   1  0.6861 -1.554430  9.595650 10.294800
28   1  0.7983 -2.113640  6.973010 23.206100
29   1  0.7635 10.901800 15.635300 10.929300
30   1  0.6964 11.731200 16.317700 19.472200
31   1  0.7893  3.077240 16.448300 10.090200
32   1  0.7082 10.491700 10.097100 17.307900
33   1  0.5150  1.883320  5.437280  6.371060
34   1  0.6862 19.200500  3.551990 20.125400
35   1  0.6694 21.112300 14.872500  1.419510
36   1  0.7561 22.198000 12.488100 14.454400
37   1  0.6376 12.432300  6.414730 10.149900
38   1  0.7418  5.288770  3.265120 17.128400
39   1  0.7522  8.154110  2.346270  3.248940
40   1  0.7565  7.401280 11.845300 15.528600
41   1  0.8008 20.266500  4.443250  8.741650
42   1  0.8234  2.968720  3.814170 20.181800
43   1  0.7735 18.796800 11.833900 11.968400
44   1  0.8276 -0.831932 12.183400 21.948700
45   1  0.7675 11.597000  6.375620 13.946200
46   1  0.7297  7.101620  5.669180 25.849600
47   1  0.7881 12.215200 14.004400 14.457200
48   1  0.7666 10.449800 10.346600 25.014100
49   1  0.6729  1.573390 12.713300  5.897560
50   1  0.7770  7.242950  3.417820 20.540900
51   1  0.6908  2.734390  7.257320 26.788700
52   1  0.7780  2.412420 10.544600 15.677600
53   1  0.6826 18.775800 14.202100  9.127530
54   1  0.7303 12.859500  6.978230 21.086100
55   1  0.7044 21.883200 11.522800  7.555390
56   1  0.7013  0.815798  6.210740 17.834100
57   1  0.7211  5.229070  3.355590  8.756190
58   1  0.6823  7.039900  1.910440 23.825300
59   1  0.7450  2.467540  6.534810 14.327300
60   1  0.5167  7.432500 13.239500 25.722000
61   1  0.6877 17.427600  1.643360 10.171500
62   1  0.6177 19.460300 15.533800 22.442900
63   1  0.7438 15.000100 13.315700  7.714320
64   1  0.8069 18.357700 11.073900 23.164000
65   1  0.7692  1.367500 10.633600 24.734800
66   1  0.6849  0.303633  3.615920 14.002200
67   1  0.6398  4.732120  2.762070 27.038500
68   1  0.6079  0.553390 14.727900 12.729600
69   1  0.5730  6.602000  9.726000 25.465200
70   1  0.8076 10.778000  3.703710 18.321000
71   1  0.7207 12.923100 14.905600 25.951700
72   1  0.7377  9.814380 17.973400 14.981500
73   1  0.6394  7.516600  7.716210 22.067100
74   1  0.7775 13.354400  2.549200 14.339400
75   1  0.7581  8.132880 16.179900 26.699100
76   1  0.7696  5.896100 14.537500  7.757470
77   1  0.8305 -1.119950  6.192140 27.132100
78   1  0.8091 21.005700  4.609500 13.005100
79   1  0.6148 19.598700 17.200700 26.338400
80   1  0.6816 21.376600  1.935300 16.637600
81   1  0.6880  0.388893  2.204610 24.856000
82   1  0.4772  2.358900 17.877400 13.866500
83   1  0.5316  4.233040 10.473700  0.670669
84   1  0.5962  4.652810 15.154900 14.578500
85   1  0.8286 11.940500  7.453830 -0.176176
86   1  0.7049 14.551300  1.651390 18.455800
87   1  0.6588 13.945900 11.616000 26.210700
88   1  0.7210 14.458600  9.885070 11.858100
89   1  0.6278 15.637100  1.267230 22.073500
90   1  0.6213  7.139390  3.584320 13.542800
91   1  0.4802  7.959530 12.374200 22.365200
92   1  0.7592  6.397730  9.786470 12.342500
93   1  0.7759 20.066300  4.675030 24.661900
94   1  0.7072 18.249700  2.089410 14.004600
95   1  0.7196 21.236600 10.497200 25.929200
96   1  0.7065 18.978300  8.293390 11.533500
97   1  0.6048 -0.856444  8.156420  6.643440
98   1  0.6418  3.977770  6.042510 23.728900
99   1  0.7345 -0.456071 17.390800  4.413150
100  1  0.6975 -1.950960 15.976100 19.677000
101  1  0.6856  9.901910  9.312980 11.460400
102  1  0.6751 16.432500  5.751650 21.820200
103  1  0.6168 12.122800  3.415630  7.787660
104  1  0.6765 11.877400  3.126520 26.631500
105  1  0.6692 10.196600  2.968680 12.026600
106  1  0.5570  5.347120 12.416000 18.317600
107  1  0.6338  7.665370 17.458400 10.557900
108  1  0.7359  7.490800 16.013400 19.620500
109  1  0.6840 17.744700 10.219800  6.930730
110  1  0.7786 16.903500  8.283690 25.452200
111  1  0.7438 20.218100 18.136800  7.075870
112  1  0.5920 15.297600  5.017220 12.375400
113  1  0.7987  1.034100  4.918640 10.211700
114  1  0.6438  1.153820 13.437000  0.217234
115  1  0.6385  1.789150  8.908670  9.544800
116  1  0.7711  3.224530  8.010190 19.638300
117  1  0.6163  9.381810  1.883740  7.402810
118  1  0.8041 10.933100 15.331900 22.738500
119  1  0.6959 15.378500 11.370700  3.761800
120  1  0.7395 13.205200 11.642300 22.453300
121  1  0.6068  4.198430  4.209620  3.398430
122  1  0.7444 11.367400  4.030240 22.783900
123  1  0.6823  5.113750 10.848100  8.066820
124  1  0.6720 13.238300 13.518800 18.861500
125  1  0.5786 -0.445011  3.625020  4.308240
126  1  0.6382 -1.067160  3.428680 21.507800
127  1  0.7057 -0.941358 15.765900  8.670990
128  1  0.5459 17.067100 15.761700 24.427800
129  2 -0.6695  2.427400  3.981320 12.738500
130  2 -0.4877 10.785900  7.428800 17.094900
131  2 -0.5447  5.343280 17.400500  8.350370
132  2 -0.5455  4.177890  2.376670 22.696400
133  2 -0.6816 18.604400  4.183370 11.460800
134  2 -0.3725 21.389000  9.508680 22.472000
135  2 -0.7228 19.877400 11.491300  9.574070
136  2 -0.7838 19.455000 13.814400 24.750000
137  2 -0.6253 18.210500  2.776050  7.912280
138  2 -0.5284  4.865610 15.431500 20.089500
139  2 -0.4999  3.962720 11.494000 10.862300
140  2 -0.7677  4.136630  9.204880 25.055400
141  2 -0.5239 15.815900  8.041300  9.860590
142  2 -0.5100 11.073400 10.179800 21.149700
143  2 -0.3821 13.582800 16.162300  9.265460
144  2 -0.6164 13.614700 14.889500 23.456800
145  2 -0.1033 15.927900  7.736050  3.573320
146  2 -0.4455  2.494180 10.752100 18.572500
147  2 -0.3412 13.797500  5.232350  1.420740
148  2 -0.5145  0.874530 17.760300 10.921200
149  2 -0.1623  7.255280  8.990610  5.313500
150  2 -0.3211 14.213600 15.128500 16.501000
151  2 -0.1792 12.505000 13.104200  2.878910
152  2 -0.6677  8.017960 11.619300 18.587600
153  2 -0.6459  5.246900  5.386850  0.341312
154  2 -0.5364  0.144164  8.275450 16.483100
155  2 -0.3218 -1.131260 10.470800  5.156670
156  2 -0.6316  6.143010  9.630420 15.504000
157  2 -0.4310  7.905720 11.942700  8.692820
158  2 -0.6303 11.392000  8.930900 13.666000
159  2 -0.0527 21.288200  8.019500  2.826070
160  2 -0.6060  1.953140  2.894970 17.226000
161  2 -0.5936  1.225880  6.245530  3.070830
162  2 -0.7120  1.893310 17.485900 25.999200
163  2 -0.4393  6.981340  8.564830  9.903240
164  2 -0.6039  5.153360 10.196500 21.444600
165  2 -0.5710 -1.305960 15.785600 14.319300
166  2 -0.4359 21.112300  1.959400 26.931000
167  2 -0.8222  0.106437 10.772800  8.823170
168  2 -0.2904 18.717900  6.008910 -0.333204
169  2 -0.3491 22.076300  2.428550 10.219300
170  2 -0.5832  4.854890 18.062000  1.991290
171  2 -0.6551  3.306020  6.253460  9.205690
172  2 -0.6048  5.163280  6.402790 20.639100
173  2 -0.5521 11.856600 17.737700 17.314800
174  2 -0.5324 13.173100  1.592870 23.230300
175  2 -0.6016 17.131800 13.439500  6.042370
176  2 -0.5322 12.977800  9.306010 24.675500
177  2 -0.1688  7.294330  7.734290  1.752620
178  2 -0.7543 -1.790700  4.438620 24.211100
179  2  0.0458 10.091700 11.157500  4.534780
180  2 -0.7087 18.602100 10.271100 25.997700
181  2 -0.2133  7.650450  5.792800  3.729650
182  2 -0.5043  9.989030  2.475480 20.531600
183  2 -0.5753 21.502600  7.279100 25.504700
184  2 -0.0801 21.914500  9.510220 17.710600
185  2 -0.4037 10.788100  9.786440  0.138595
186  2 -0.5354  3.598430  8.470040 12.173200
187  2 -0.6212  7.515300  1.880870 26.926400
188  2 -0.5424  9.140090 14.778600 13.361700
189  2 -0.3048 17.261100  2.898900 26.633800
190  2 -0.2191 13.659900 10.114700 15.925400
191  2  0.0151 16.099700  3.737810  4.346160
192  2 -0.5744  9.553560 14.111100 20.580900
193  2 -0.0041  8.257260 12.567200  4.697550
194  2 -0.4307 -0.616061  1.593300 18.598200
195  2 -0.4585 -1.054220 18.085400  7.597130
196  2 -0.5835 15.398100 12.731600 20.757200
197  2 -0.6883 12.317700  5.504120 25.335300
198  2 -0.7042 13.344800  4.318310 21.016200
199  2 -0.5000 10.827900  2.466040  4.635970
200  2 -0.7579 10.664200 12.546700 23.863000
201  2 -0.2353 -1.302380  8.443700  1.168650
202  2 -0.4800  6.906990  5.185720 17.930800
203  2 -0.0943  9.965830 16.272700  2.378080
204  2 -0.3303  8.633600 14.653400 16.616600
205  2 -0.5404 21.505600  6.956710 10.897500
206  2  0.0199 21.320800  8.027950 18.776700
207  2 -0.1121 18.218400 16.410600  2.879490
208  2 -0.4191 17.641200  7.154900 19.952500
209  2 -0.6430 -0.108070  6.177510 12.614100
210  2 -0.6105  1.687320 10.437600  0.605209
211  2 -0.6384  1.818980 14.740600 15.361400
212  2 -0.5832 -1.199140 16.076800  0.435742
213  2 -0.6088 10.748300  3.765800 14.994500
214  2 -0.3069  8.478570 17.062300  5.549590
215  2 -0.1421 20.467100 12.763700 17.390700
216  2 -0.0549 14.458400 15.545100  2.066780
217  2 -0.5686 21.505000  1.866840 13.639600
218  2 -0.6592  2.419780  4.785160 25.973500
219  2 -0.4562 -0.039071 10.857500 13.114700
220  2 -0.2361 -0.465838 13.023900  2.834330
221  2 -0.4402  8.503440  2.240920 18.195700
222  2 -0.6196 15.031700  7.989990 22.792600
223  2 -0.4413 10.997400 13.716700 17.420000
224  2 -0.2661 10.415100 13.231400  0.419910
225  2 -0.4325  2.342350 15.558200  2.600830
226  2 -0.6699 15.019400 16.377500 19.970500
227  2 -0.6149 -0.713657  5.404970  8.165020
228  2 -0.6124 15.585500 11.878100 24.137000
229  2 -0.4650 18.592000  7.091260 23.135600
230  2 -0.5799  8.299600 15.411100  8.943570
231  2 -0.0674 21.008000  4.372820  2.488790
232  2 -0.4576 12.474400 13.078000 11.745300
233  2 -0.5712  9.337670  4.832600  8.572520
234  2 -0.6672  8.625880 11.378800 13.022700
235  2 -0.5315  0.252889  7.793620 24.395100
236  2 -0.4584 18.938100  6.645740  8.282710
237  2 -0.3649  9.564130  4.803360  0.867601
238  2  0.0472 18.182800  9.315370 17.225900
239  2 -0.7684  1.918820  1.957360  4.256560
240  2 -0.3046 20.027000  7.448760 14.443700
241  2 -0.2725  6.308770  5.682000  7.498590
242  2 -0.3817  1.668350 11.079200 21.703600
243  2 -0.6722  1.887660 15.093500  8.008870
244  2 -0.6397  2.451100 13.889900 24.742700
245  2 -0.4883 15.199300 10.442800  6.481620
246  2 -0.6400 17.938400  3.706660 23.310800
247  2 -0.6322 19.525800 17.143200 10.290000
248  2 -0.3146 19.403100 16.515800 15.900200
249  2 -0.3385  2.435520  2.139660  7.719120
250  2 -0.7143  7.210710  5.003780 23.267500
251  2 -0.6191  4.901640 14.530400 10.725300
252  2 -0.7538  6.246180 16.030400 24.610500
253  2 -0.2275 14.347300  1.653170  0.320574
254  2 -0.8774 18.850500 18.146600 21.534900
255  2 -0.5568 15.736700 13.269800 10.580300
256  2 -0.5957 10.826000 16.308100 25.340600
257  2 -0.0776 12.223000  9.953070  5.962900
258  2 -0.4814  9.140530  6.079140 20.558200
259  2 -0.5924  7.222830 11.318300  0.056660
260  2 -0.2527 -1.192350 12.805500 19.030000
261  2 -0.5301 17.022600 16.117900 27.097600
262  2 -0.4504 19.432700  4.173790 15.312600
263  2 -0.2101 16.959800 16.860000  6.772280
264  2 -0.5790 21.054900 10.373100 12.419100
265  2 -0.6160  5.971240  3.190870  5.087260
266  2 -0.5156  4.667200  1.738650 19.281400
267  2 -0.6916 -0.744820 12.198000 24.792700
268  2 -0.5160 15.852200 17.903100 14.593300
269  2 -0.5854  9.036240  7.805300 25.223700
270  2 -0.3873 14.685300  7.313730 14.240300
271  2 -0.1984 13.021600  7.341380  4.121050
272  2 -0.0702 16.714300 10.993100 16.899500
273  2 -0.4590 21.522600 17.925700  4.230410
274  2 -0.3705  1.264320  1.978470 20.977500
275  2 -0.7744  3.249740 10.104600  6.358180
276  2 -0.3700 20.847800 13.478800 20.749300
277  2 -0.3560 12.410700  9.722010  9.381030
278  2 -0.6064 13.959700  3.999820 16.907000
279  2 -0.5994 12.390900 17.219800 13.736300
280  2 -0.5477  5.371870  5.787360 14.960100
281  2 -0.6528 20.240200 12.322600  1.671870
282  2 -0.6645  1.660300  5.915380 20.623100
283  2 -0.5874 -1.894550 13.651200 11.284800
284  2 -0.4057 19.083000 14.841800 12.556100
285  2 -0.0144 12.501800 15.126500  4.803810
286  2 -0.5685 13.476900  5.768900  7.577030
287  2 -0.0250 10.202700 14.719500  6.342840
288  2 -0.5263  8.686240 17.118700 22.294900
289  2 -0.8089 10.160100 18.007500 10.284400
290  2 -0.2253  1.483730 15.407600 19.076700
291  2 -0.7378  8.846360  5.660120 12.645400
292  2 -0.3165  1.111450 16.773700 22.587700
293  2 -0.0260 14.163800  2.587140  3.945920
294  2 -0.0069 18.393900 13.261000 16.855700
295  2 -0.4874 20.017600 10.587800  5.079280
296  2 -0.5066 21.768800  4.889530 20.191200
297  2 -0.3874 -1.423820 14.405100  5.703100
298  2 -0.7405 -2.419870 15.873500 22.812800
299  2 -0.2643 20.930400  5.786810  5.630960
300  2 -0.5761 -1.458200  5.256190 15.559000
301  2 -0.7977 12.467400  4.277870 12.192400
302  2 -0.6191 17.661800  2.261800 18.168000
303  2 -0.6489 16.991300 12.969800  2.307350
304  2 -0.5704 13.510800  8.297050 18.866000
305  2 -0.6097  4.633140  1.547830 11.561800
306  2 -0.4352  4.673120 14.519000  5.460930
307  2 -0.5626  5.278640 12.983400 13.883400
308  2 -0.3489  6.743460 14.860700  1.319270
309  2 -0.1938 17.193900  6.798970 15.663000
310  2 -0.5729 15.588300  9.388580 27.469100
311  2 -0.1841 16.174600 13.922300 14.160400
312  2 -0.2263 18.543100 10.800500 20.398400
313  2 -0.5527  3.349860  7.818630 16.257400
314  2 -0.4621 -0.625057  3.112230  0.434906
315  2 -0.6832  6.802320  1.477000 15.177000
316  2 -0.0311 12.336800 17.642900  2.644950
317  2 -0.3727 17.393600 10.181400 13.574700
318  2 -0.1770 18.099700  8.059360  3.809620
319  2 -0.6605 15.070000  3.208480  9.708030
320  2 -0.5209 20.195000 14.521400  6.868050

