Generated by pymatgen.io.lammps.data.LammpsData

216  atoms

  2  atom types

0.000000 18.096178  xlo xhi
0.000000 18.140645  ylo yhi
0.000000 18.233787  zlo zhi

Masses

1  208.9804
2   78.9600

Atoms

1    1  0.7667  0.197417  0.083562 17.375400
2    1  0.7347 17.764600 18.291800  5.281140
3    1  0.7319 18.158600 17.756700 11.761400
4    1  0.8768 17.867300  6.269660 18.049900
5    1  0.6895 18.323700  6.203100  5.889530
6    1  0.8204 17.717000  5.981570 11.732200
7    1  0.6855  0.203485 12.152900 18.441200
8    1  0.8189 17.813100 12.183200  6.018720
9    1  0.8209 17.687200 11.615800 11.668000
10   1  0.7695  5.866810 17.476600 18.226500
11   1  0.7329  6.016410 18.363700  5.630640
12   1  0.7266  6.295640 17.585000 12.391800
13   1  0.7217  5.800240  6.274720 18.057700
14   1  0.9093  6.208450  5.553580  5.396130
15   1  0.7346  5.947130  5.463310 11.484900
16   1  0.8529  5.813180 11.869500  0.158168
17   1  0.8217  5.456710 11.605000  5.650230
18   1  0.6404  6.266600 11.500100 11.269300
19   1  0.7777 12.770500 17.764700 17.739800
20   1  0.7082 11.556500 17.502600  5.858820
21   1  0.9057 11.979300 17.827700 11.722200
22   1  0.7960 12.494900  6.363200 17.734900
23   1  0.8070 11.785100  5.508740  5.430030
24   1  0.7307 11.895800  5.559930 11.637700
25   1  0.7415 12.342900 12.323900 18.021500
26   1  0.8685 12.140900 11.696100  5.658940
27   1  0.7299 12.049600 12.078500 10.990400
28   1  0.7998 17.734800  3.249870  2.512480
29   1  0.8533 -0.260546  3.006740  8.723220
30   1  0.8080  0.069816  2.588580 14.727200
31   1  0.7705  0.450227  8.312720  2.545630
32   1  0.7700 17.864000  8.580680  8.460650
33   1  0.7936 -0.079567  8.620910 14.584300
34   1  0.7634 17.495100 14.998000  2.640870
35   1  0.7085  0.264368 15.109400  8.101320
36   1  0.7921 18.228700 14.549300 15.096300
37   1  0.8036  6.126510  2.221620  2.568480
38   1  0.7924  6.526960  2.321280  7.938730
39   1  0.6587  6.482650  2.813920 15.127000
40   1  0.7879  6.385100  8.098030  2.814100
41   1  0.7912  5.570390  8.034200  9.091500
42   1  0.7582  5.727130  9.137230 14.474200
43   1  0.8258  6.071870 14.584100  2.766000
44   1  0.7865  5.629470 15.270200  8.670940
45   1  0.7491  5.854330 14.981700 14.300100
46   1  0.8630 12.290000  2.505280  2.750050
47   1  0.6494 11.719600  2.453380  9.034630
48   1  0.6840 12.132300  3.228210 15.051400
49   1  0.7596 12.277800  9.541890  2.725480
50   1  0.7046 11.635300  8.429830  8.970100
51   1  0.8752 12.287000  9.298310 14.539000
52   1  0.8173 11.844900 15.054800  2.684070
53   1  0.8324 11.311400 14.841900  8.462620
54   1  0.8235 11.714500 14.585500 14.111000
55   1  0.7636  3.087760 -0.177562  2.561200
56   1  0.7565  3.109710 -0.075398  8.981650
57   1  0.8856  3.378570 17.698700 14.880400
58   1  0.7044  3.399200  5.900000  2.207480
59   1  0.7186  2.800170  5.352730  8.850650
60   1  0.8131  3.129990  5.497740 14.312600
61   1  0.7515  2.509810 11.593100  2.263270
62   1  0.8559  2.950940 11.349600  8.580880
63   1  0.8521  3.056930 11.580500 14.807100
64   1  0.8705  8.531390 18.096000  2.371380
65   1  0.6678  8.680330 17.605500  8.819420
66   1  0.7323  8.412160 17.912400 14.658400
67   1  0.8565  9.342410  6.325240  2.023080
68   1  0.8002  9.301100  5.263110  8.991250
69   1  0.7901  9.138310  5.754030 14.862900
70   1  0.8879  9.062880 12.206400  2.400460
71   1  0.7551  8.844720 10.795200  8.685220
72   1  0.7601  8.972280 11.685200 14.822300
73   1  0.6833 15.573200  0.743923  2.625910
74   1  0.8161 14.895900 18.337100  8.688270
75   1  0.7205 15.061600 18.151800 14.561600
76   1  0.8368 15.028200  6.184370  2.598550
77   1  0.7792 14.882100  5.385670  8.385710
78   1  0.8736 15.066200  5.710490 14.890700
79   1  0.7394 14.513200 12.246800  2.636180
80   1  0.6414 14.785400 11.419200  8.657180
81   1  0.6735 15.109800 11.681000 14.838100
82   1  0.8004  3.326290  3.367180 17.571500
83   1  0.8172  3.239880  2.882160  5.728890
84   1  0.8554  2.808420  2.226220 11.316200
85   1  0.7996  3.293160  8.642810 17.892500
86   1  0.7310  3.045680  8.678530  5.953410
87   1  0.6980  3.107920  8.276910 11.679800
88   1  0.8095  3.267330 14.633700 17.837600
89   1  0.7385  2.770440 15.582900  5.152190
90   1  0.8055  2.708640 15.396900 11.090900
91   1  0.7523  9.624090  3.012100 18.367300
92   1  0.7908  9.318990  2.518020  5.832250
93   1  0.7222  8.921990  2.235830 11.541300
94   1  0.8154  8.971130  8.949090 17.386300
95   1  0.8146  8.990910  8.969390  5.484710
96   1  0.7403  8.597500  8.684180 11.681800
97   1  0.8636  9.018450 14.791300 17.386300
98   1  0.8301  9.117650 14.703400  5.320470
99   1  0.7485  8.433950 14.835100 11.915700
100  1  0.6774 15.711600  3.275540 18.430500
101  1  0.8532 14.962600  2.728710  5.698750
102  1  0.8215 14.670300  2.976160 11.224900
103  1  0.6494 15.779200  9.413450 17.716200
104  1  0.8139 14.727300  8.756380  5.776680
105  1  0.7185 15.040600  8.913680 11.498000
106  1  0.7850 15.477100 15.286900 17.668900
107  1  0.7309 14.750700 15.051100  5.878540
108  1  0.7239 15.509200 15.337700 12.023800
109  2 -0.7666  3.032440 17.622300 17.516300
110  2 -0.7973  3.236740 18.366900  6.001560
111  2 -0.8383  3.294030 17.782200 12.082300
112  2 -0.7825  2.953770  5.881080 17.394700
113  2 -0.7669  3.305280  5.652200  5.169510
114  2 -0.7556  2.508170  4.803940 11.536300
115  2 -0.8419  3.111490 11.495200 17.858300
116  2 -0.6336  2.533030 12.254900  5.558620
117  2 -0.5508  2.582640 12.252800 11.338600
118  2 -0.7713  8.413420 17.545100 17.988200
119  2 -0.8584  8.888370 18.171100  4.956580
120  2 -0.8283  9.301920 17.466500 11.912500
121  2 -0.7784  9.379680  5.907880 17.501000
122  2 -0.6380  8.884040  5.625260  5.154000
123  2 -0.7953  8.928670  5.234430 11.743300
124  2 -0.7402  9.059710 12.177900 -0.352112
125  2 -0.6565  9.113750 11.797700  5.154290
126  2 -0.8000  9.414370 11.308300 11.451200
127  2 -0.8384 15.569400 -0.371481 17.939000
128  2 -0.7816 14.662900 18.258600  5.947690
129  2 -0.7970 14.715100 18.375700 11.894400
130  2 -0.8755 15.372100  6.591640 17.961900
131  2 -0.7273 14.660300  6.111510  5.414670
132  2 -0.7599 14.770100  5.219160 12.206000
133  2 -0.8759 15.453300 12.214600 17.914100
134  2 -0.8038 14.989100 12.325500  5.557640
135  2 -0.8020 15.063100 12.265500 11.745700
136  2 -0.6813  2.775730  2.511990  2.132610
137  2 -0.7719  2.604720  2.546410  8.574710
138  2 -0.6989  2.866070  2.880040 14.456500
139  2 -0.8113  3.181260  8.818030  3.045620
140  2 -0.8991  2.946980  8.711900  8.594340
141  2 -0.7655  2.922910  8.698430 14.555100
142  2 -0.7553  3.223290 14.590200  2.443260
143  2 -0.7269  2.865730 14.417700  8.262390
144  2 -0.6855  2.705500 14.271600 14.917300
145  2 -0.7040  8.652980  2.685610  2.640260
146  2 -0.9614  8.937950  2.657630  8.613190
147  2 -0.7793  9.372600  2.324060 14.818200
148  2 -0.7655  9.190960  8.849130  2.154720
149  2 -0.7851  8.705990  8.125220  8.536810
150  2 -0.7074  9.569160  8.342400 14.767600
151  2 -0.7606  8.892530 15.090300  2.478220
152  2 -0.6018  8.485900 13.573800  8.496010
153  2 -0.8551  8.412920 14.381600 14.668000
154  2 -0.9640 15.305900  3.382700  2.751720
155  2 -0.9341 15.125400  2.634410  8.380810
156  2 -0.7624 15.403200  2.739420 15.447700
157  2 -0.7490 14.963400  8.854040  3.078710
158  2 -0.8331 14.955600  8.198280  8.814490
159  2 -0.7627 15.072900  8.479510 14.283600
160  2 -0.7624 14.587300 15.072500  2.651200
161  2 -0.6588 14.490700 15.535200  8.835470
162  2 -0.7345 14.948000 14.946900 14.809300
163  2 -0.7713  0.188968  0.178295  2.613630
164  2 -0.7696 18.228100 18.263900  9.102240
165  2 -0.7646 18.877800 17.288500 14.568100
166  2 -0.8405 18.550500  5.712630  2.350630
167  2 -0.8606 17.881800  5.892410  8.917690
168  2 -0.7293 17.734200  6.004800 14.388300
169  2 -0.7166 18.015600 12.162600  3.144090
170  2 -0.7442 17.804100 11.721700  8.693690
171  2 -0.7636 18.073300 11.480400 14.679200
172  2 -0.9174  5.910260 17.565700  2.663030
173  2 -0.9146  5.997630 17.757800  8.784530
174  2 -0.9587  5.846480 18.207700 14.873600
175  2 -0.7539  6.851500  5.669180  2.712190
176  2 -0.7661  5.969110  5.787780  8.436320
177  2 -0.7498  5.827210  6.176020 14.824700
178  2 -0.7294  6.331880 11.491400  2.696460
179  2 -0.7321  5.563540 11.030500  8.219610
180  2 -0.7512  5.810810 11.862300 14.774900
181  2 -0.7242 12.270100 18.153700  2.425090
182  2 -0.8171 11.439800 17.422600  8.718250
183  2 -0.6217 12.223700 17.131300 14.729600
184  2 -0.6997 12.157800  5.624120  2.370990
185  2 -0.8757 11.951900  5.770080  8.660740
186  2 -0.6631 12.348500  6.388660 14.738100
187  2 -0.9053 11.774500 12.277600  2.526600
188  2 -0.8111 11.807200 11.933800  8.086110
189  2 -0.7764 11.810300 11.987500 14.884300
190  2 -0.7308  0.376058  3.279340 17.550800
191  2 -0.7439 17.914300  2.986380  5.958720
192  2 -0.6973 17.524100  2.625730 12.030700
193  2 -0.8587  0.574553  8.555630 18.077500
194  2 -0.7396 17.651700  8.865630  5.547840
195  2 -0.7823 18.516600  8.844420 11.312000
196  2 -0.7612  0.465357 15.077300 -0.363118
197  2 -0.8163 18.174600 15.550500  5.251190
198  2 -0.7475 18.220200 14.890300 11.306700
199  2 -0.7604  6.071870  3.703260 18.332500
200  2 -0.8782  6.073180  2.817470  5.430570
201  2 -0.6735  5.631120  2.859420 11.114300
202  2 -0.8242  6.030590  9.147590 17.916700
203  2 -0.7307  6.213990  8.504770  5.361180
204  2 -0.9684  6.061090  8.572720 11.817000
205  2 -0.7856  6.227620 14.516500 18.345500
206  2 -0.6950  6.273620 14.622400  6.061370
207  2 -0.8862  5.738780 15.086100 11.756900
208  2 -0.7785 12.244200  2.948090 18.468300
209  2 -0.8089 12.180100  2.818080  5.569760
210  2 -0.8079 11.967800  2.343470 12.031700
211  2 -0.7121 11.929700  8.864290 17.446600
212  2 -0.8260 11.793500  9.094380  5.266540
213  2 -0.7516 12.186600  9.013770 11.692400
214  2 -0.6751 12.177000 15.106000 17.552200
215  2 -0.8383 11.446600 14.448900  5.648940
216  2 -0.6897 11.240400 15.195600 11.396200

