Generated by pymatgen.io.lammps.data.LammpsData

7  atoms

2  atom types

0.000000 5.704866  xlo xhi
0.000000 5.039352  ylo yhi
0.000000 4.775932  zlo zhi
2.673977 2.673839 1.608260  xy xz yz

Masses

1  208.9804
2   78.9600

Atoms

1  1 0.000000  0.000000 0.000000
2  1 5.526341  3.323806 2.387966
3  2 1.336920  0.804130 2.387966
4  2 2.852433 -0.000000 0.000000
5  2 1.336989  2.519676 0.000000
6  2 7.874321  4.735885 3.402615
7  2 3.178361  1.911727 1.373317

