Generated by pymatgen.io.lammps.data.LammpsData

360  atoms

  2  atom types

0.000000 16.871067  xlo xhi
0.000000 22.058404  ylo yhi
0.000000 29.928687  zlo zhi

Masses

1  208.9804
2   78.9600

Atoms

1    1  0.7567  1.915570 13.467400 21.442600
2    1  0.7450  3.931270 17.136400 21.425400
3    1  0.7844  2.436640  5.961390 21.638200
4    1  0.7436  4.585910  9.513090 21.593000
5    1  0.8037  6.238820 13.229400 21.270900
6    1  0.8175  8.212390 16.855000 21.256300
7    1  0.8287  1.930760 20.778700 21.544100
8    1  0.7882  4.302620  2.188960 21.503900
9    1  0.7624  6.538270  5.851460 21.568300
10   1  0.7607  8.568480  9.666890 21.369700
11   1  0.7709 10.655300 13.182600 21.659900
12   1  0.7518 12.748400 16.954400 21.932000
13   1  0.7866  6.331210 20.552000 21.383800
14   1  0.7801  8.476690  2.087600 21.311700
15   1  0.7540 10.830900  5.824890 21.575400
16   1  0.7648 13.079700  9.454110 21.287400
17   1  0.7266 14.628800 13.648100 21.402000
18   1  0.7806  0.037657 16.913800 21.299000
19   1  0.7855 10.250200 20.513400 21.088100
20   1  0.7504 12.646000  2.306490 21.716200
21   1  0.7656 14.868100  5.962120 21.077400
22   1  0.7691  0.401375  9.751110 21.659500
23   1  0.7049 14.734800 20.600300 21.502300
24   1  0.7971 -0.163050  2.298560 21.297700
25   1  0.7379  2.560500 13.540900 28.325800
26   1  0.6795  4.491880 17.107400 27.938800
27   1  0.7552  2.376630  5.701820 28.134500
28   1  0.7758  4.314050  9.249280 28.504500
29   1  0.7233  6.627690 13.055800 27.673800
30   1  0.7663  8.568960 16.619800 27.869500
31   1  0.7820  2.296000 20.264400 28.024600
32   1  0.7618  4.668640  2.056990 27.746000
33   1  0.7291  6.467260  5.440580 27.925100
34   1  0.7641  8.532350  9.580710 28.198700
35   1  0.7388 10.759700 13.119100 28.313900
36   1  0.7911 12.750100 16.666100 27.763300
37   1  0.7527  6.690940 20.403500 27.651800
38   1  0.7702  8.771840  2.120760 28.208500
39   1  0.7918 10.442500  5.647360 27.977300
40   1  0.7498 12.930900  9.580710 28.108400
41   1  0.7210 14.869700 13.257300 28.058100
42   1  0.8241  0.193027 16.810400 27.990400
43   1  0.8117 10.636600 20.621400 28.015500
44   1  0.7772 13.035600  1.999560 28.497400
45   1  0.8260 14.998400  5.744630 28.243800
46   1  0.7741  0.456980  9.685070 28.207800
47   1  0.7685 15.128500 20.418200 28.281900
48   1  0.7864  0.485562  2.191800 28.151900
49   1  0.7602  2.453040 15.769200  1.466520
50   1  0.7307  4.444110 19.255400  1.282880
51   1  0.7930  2.362190  7.984170  1.614880
52   1  0.7551  4.396280 12.054000  1.763070
53   1  0.8132  6.740220 15.647300  1.461700
54   1  0.8184  8.683060 19.427500  1.613800
55   1  0.8238  2.495500  1.123490  1.436910
56   1  0.8040  4.536660  4.421890  1.518370
57   1  0.7660  6.587280  8.204520  1.647650
58   1  0.7675  8.631920 11.762700  1.573130
59   1  0.7971 10.811200 15.910600  1.184790
60   1  0.7796 12.887500 19.265600  1.392270
61   1  0.7903  6.496300  0.932678  1.771500
62   1  0.7740  8.912530  4.562150  1.510040
63   1  0.7568 10.672700  7.954480  1.663510
64   1  0.7527 12.663700 11.828600  1.609480
65   1  0.7745 14.934300 15.549200  1.422080
66   1  0.7439  0.024560 19.059300  1.546170
67   1  0.7616 10.692500  0.942098  1.660550
68   1  0.7398 13.269500  4.030270  1.475940
69   1  0.8176 14.780700  8.141320  1.600660
70   1  0.7746  0.101528 11.885500  1.567140
71   1  0.7596 15.080200  0.706438  1.717560
72   1  0.7874 16.883800  4.432070  1.715470
73   1  0.7886  2.234890 15.818600  7.796220
74   1  0.8216  4.272390 19.457000  7.910560
75   1  0.7988  2.253370  8.051910  7.831160
76   1  0.7695  4.267250 11.689300  7.623030
77   1  0.7375  6.461000 15.968600  8.100000
78   1  0.7458  8.468540 19.496600  7.866440
79   1  0.7723  2.213040  0.801085  8.067060
80   1  0.8118  4.293890  4.356700  7.646520
81   1  0.7928  6.723040  8.337790  7.883980
82   1  0.7802  8.751680 11.988100  7.783030
83   1  0.7696 10.719300 15.542400  7.807450
84   1  0.8257 12.740400 19.304700  8.072630
85   1  0.7956  6.358780  0.844007  7.762710
86   1  0.7647  8.659030  4.406550  7.837700
87   1  0.7613 10.787400  8.206050  8.026620
88   1  0.7710 12.687800 12.074600  8.034430
89   1  0.7643 14.920900 15.810300  7.940940
90   1  0.7779  0.246133 19.465700  8.044490
91   1  0.8125 10.836000  0.864353  7.561470
92   1  0.7960 13.036400  4.698110  7.959260
93   1  0.8006 15.187700  8.494620  7.939320
94   1  0.8103  0.110862 12.103400  7.670850
95   1  0.8766 15.044600  0.910742  7.878740
96   1  0.8242  0.198423  4.625840  7.835360
97   1  0.7712  0.150278 14.575700 10.994100
98   1  0.7786  2.043190 18.208400 11.030100
99   1  0.7251  0.261254  6.719300 11.506400
100  1  0.8182  2.355660 10.790800 10.879000
101  1  0.7410  4.316450 14.533600 11.155900
102  1  0.7995  6.305340 18.278400 11.637900
103  1  0.7268  0.182034 21.892100 11.170500
104  1  0.7720  2.007720  3.575770 11.239000
105  1  0.7757  4.213240  6.857870 11.814700
106  1  0.7951  6.512510 10.480500 11.476500
107  1  0.7846  8.801720 14.361000 11.165300
108  1  0.7828 10.504600 18.575500 11.363800
109  1  0.7931  4.603490 21.978100 11.421300
110  1  0.7979  6.421860  3.623830 11.370400
111  1  0.7587  8.515580  7.182390 11.453200
112  1  0.7018 10.998200 10.805200 11.352600
113  1  0.7521 12.802800 14.875200 11.244400
114  1  0.7925 14.851600 18.143500 11.227300
115  1  0.7725  8.568990 21.953100 11.223800
116  1  0.7432 10.426500  3.299900 11.128400
117  1  0.7854 12.995400  6.941360 11.227800
118  1  0.7502 14.933300 11.047400 11.403500
119  1  0.8041 12.924700 -0.175110 11.169200
120  1  0.7384 14.839100  3.502090 11.255400
121  1  0.8008 -0.044293 14.476600 18.011500
122  1  0.8038  1.927730 18.286300 18.020500
123  1  0.7630  0.218576  7.235620 17.748100
124  1  0.7546  2.378250 10.785500 18.103800
125  1  0.7518  4.257290 14.358400 17.932200
126  1  0.8026  6.047370 18.145600 17.945600
127  1  0.7881 -0.092095 21.805000 17.837000
128  1  0.7470  2.236780  3.421500 18.393600
129  1  0.7636  4.595330  7.175920 17.799600
130  1  0.7797  6.527920 10.941200 18.173900
131  1  0.7635  8.554720 14.578900 17.919700
132  1  0.7888 10.468600 18.197700 17.792100
133  1  0.8013  4.200770 21.806800 18.145400
134  1  0.7472  6.459120  3.440460 17.563000
135  1  0.8110  8.577320  7.016060 17.893900
136  1  0.7600 10.569400 10.780200 18.003500
137  1  0.7100 12.797000 14.585600 18.151600
138  1  0.7587 14.437900 18.119200 18.108100
139  1  0.7624  8.400400 21.772600 18.009400
140  1  0.8006 10.281300  3.379830 17.893900
141  1  0.7586 12.929500  7.011940 17.982300
142  1  0.7971 14.961000 10.853100 17.947000
143  1  0.7402 12.271700 21.910100 17.844900
144  1  0.7465 15.186000  3.561960 17.870500
145  2 -0.8716  0.081646 14.430000 29.601700
146  2 -0.9424  2.002160 18.020200 29.567400
147  2 -0.8298  0.213793  6.973730 29.626200
148  2 -0.8720  2.178980 10.889400 -0.065332
149  2 -0.9004  4.570740 14.553200 30.070400
150  2 -0.8848  6.782850 18.232800 29.887700
151  2 -0.8416 17.286000 -0.260181 -0.144024
152  2 -0.8865  2.442140  3.287620 29.913100
153  2 -0.8976  4.325810  6.987440  0.074864
154  2 -0.8894  6.411220 10.577000 -0.135213
155  2 -0.8758  8.733240 14.234100 29.859400
156  2 -0.8534 10.651600 18.011900 29.564200
157  2 -0.8267  4.292290 21.853800 29.556800
158  2 -0.8992  6.568840  3.238890 29.764500
159  2 -0.8838  8.316310  6.772700 29.763200
160  2 -0.9098 10.573800 10.538700 29.869200
161  2 -0.9222 12.889100 14.513600 29.748300
162  2 -0.8855 14.889100 17.880500 29.590700
163  2 -0.8790  8.609250 21.609100 29.885300
164  2 -0.9238 10.765400  3.106790 -0.031638
165  2 -0.8215 12.823000  6.899880 29.803200
166  2 -0.8845 14.855700 10.488000 -0.066644
167  2 -0.9093 13.144300 -0.523464  0.064286
168  2 -0.9584 15.286800  3.383570 29.752800
169  2 -0.2925  2.494780 15.776400 26.151000
170  2 -0.3144  4.327600 18.984100 25.821400
171  2 -0.3518  2.797400  8.524330 26.433600
172  2 -0.2737  4.476600 11.798200 26.199300
173  2 -0.3679  6.345920 15.902700 26.101000
174  2 -0.3418  8.989120 19.323000 26.326000
175  2 -0.3441  2.603080  0.794875 26.274500
176  2 -0.3719  4.404050  4.361300 26.008800
177  2 -0.2613  6.608310  8.200080 26.098800
178  2 -0.3384  8.898360 11.583300 26.227400
179  2 -0.4379 10.611200 15.401800 26.441200
180  2 -0.3380 12.775500 19.326200 26.427900
181  2 -0.3539  7.214600  0.517916 26.167700
182  2 -0.3428  9.114880  4.121090 26.201000
183  2 -0.3102 10.839700  7.982060 26.332000
184  2 -0.3070 12.614400 11.896100 26.085800
185  2 -0.2873 15.376600 15.611700 25.914300
186  2 -0.3504  0.274634 19.331800 26.322000
187  2 -0.3057 11.033600  0.830592 26.499200
188  2 -0.3967 12.705000  4.260910 27.037300
189  2 -0.3031 15.661200  8.330010 26.414500
190  2 -0.2689  0.643427 12.327500 26.230400
191  2 -0.2694 14.681300  0.932180 26.318000
192  2 -0.3169  0.402777  4.629730 26.339700
193  2 -0.3794  0.072473 14.618800 23.091900
194  2 -0.3098  2.020400 18.141500 23.293100
195  2 -0.3341 -0.097449  7.062610 22.913400
196  2 -0.3486  2.422090 10.614000 23.292800
197  2 -0.2958  4.221270 14.674400 23.224300
198  2 -0.3392  6.612250 18.232800 23.117400
199  2 -0.2471 16.846600 22.184600 23.664600
200  2 -0.2610  2.136580  3.263320 23.468400
201  2 -0.3656  4.755670  6.772540 23.445500
202  2 -0.3939  6.496480 10.890700 23.075000
203  2 -0.2749  8.090720 14.587800 23.411500
204  2 -0.3399 10.300800 18.120400 22.970000
205  2 -0.3731  3.965280 21.712700 23.134900
206  2 -0.3272  6.555330  3.083980 23.359400
207  2 -0.2809  8.442040  6.816600 23.584000
208  2 -0.3170 10.769200 10.611200 23.227700
209  2 -0.3857 12.607200 14.169800 23.432300
210  2 -0.3965 15.171900 18.056300 23.209700
211  2 -0.3758  8.430430 21.546800 22.910500
212  2 -0.3916 10.705400  3.371280 23.055400
213  2 -0.3815 13.097900  7.194100 22.992100
214  2 -0.3034 14.933500 10.904400 23.293000
215  2 -0.2733 12.677400 21.710700 23.461600
216  2 -0.4026 14.819200  3.709340 22.858500
217  2 -0.8700  2.266660 13.115500  9.205740
218  2 -0.8999  4.188290 17.145900  9.441300
219  2 -0.8983  2.326680  5.756950  9.534700
220  2 -0.8277  4.409170  9.422560  9.500740
221  2 -0.7950  6.578720 13.194700  9.478270
222  2 -0.8315  8.608740 16.979500  9.882130
223  2 -0.9273  2.473080 20.551500  9.802950
224  2 -0.8506  4.380600  2.156690  9.730910
225  2 -0.8333  6.659670  5.978520  9.702470
226  2 -0.8648  8.646990  9.758090  9.675660
227  2 -0.9476 10.852600 13.378400  9.475000
228  2 -0.9082 12.694700 17.143400  9.739420
229  2 -0.8914  6.345700 20.466800  9.547590
230  2 -0.8884  8.482720  1.919150  9.484950
231  2 -0.8719 10.947600  5.780420  9.861520
232  2 -0.8744 12.953100  9.295410  9.475870
233  2 -0.8917 14.938300 13.207600  9.600020
234  2 -0.9620  0.006980 17.184300  9.446990
235  2 -0.8770 10.891500 20.825000  9.552510
236  2 -0.8633 13.095600  1.851590  9.406770
237  2 -0.9240 14.856800  5.755580  9.505410
238  2 -0.8550  0.371980  9.645470  9.512700
239  2 -0.8941 14.877000 20.674400  9.347780
240  2 -0.9086  0.047105  2.247040  9.353200
241  2 -0.4250  0.310495 14.668700  6.455760
242  2 -0.3210  2.293550 18.455200  6.052460
243  2 -0.3829 17.183100  6.945690  6.202130
244  2 -0.3123  2.184760 10.491900  5.744430
245  2 -0.2387  4.078540 14.418600  5.612690
246  2 -0.3249  6.437120 18.040400  6.107270
247  2 -0.3292  0.294998 21.678800  6.141090
248  2 -0.4443  2.178040  3.208280  6.530950
249  2 -0.3530  4.690620  6.972870  6.322890
250  2 -0.3807  6.428230 10.717800  6.064280
251  2 -0.2920  8.247050 14.750800  5.993280
252  2 -0.3831 10.654300 17.999500  6.346430
253  2 -0.3396  4.378920 -0.339147  6.038170
254  2 -0.3868  6.752770  3.119150  6.219530
255  2 -0.3262  8.853420  6.931480  6.108050
256  2 -0.3757 10.835000 10.768400  6.246720
257  2 -0.3356 13.021300 14.289900  6.122350
258  2 -0.2805 15.143400 18.383800  6.065870
259  2 -0.3657  8.435500 -0.149669  6.048580
260  2 -0.3764 10.816800  3.610340  6.278090
261  2 -0.2807 13.200300  7.068870  6.175110
262  2 -0.3115 14.995300 10.747100  6.024070
263  2 -0.3226 13.136900 -0.356990  6.206310
264  2 -0.2743 15.110900  3.233410  5.893640
265  2 -0.3202  1.727740 13.335000  3.352110
266  2 -0.3154  4.343810 17.185000  3.241050
267  2 -0.3815  2.105740  5.537070  3.144900
268  2 -0.2937  4.204550  9.170160  3.710520
269  2 -0.3507  6.414620 13.254600  3.303780
270  2 -0.3096  8.779560 16.712200  3.248940
271  2 -0.2957  2.429780 20.463500  3.159620
272  2 -0.3712  4.592360  1.978200  3.327150
273  2 -0.3218  6.506370  5.927800  3.376890
274  2 -0.3282  8.768210  9.250420  3.625670
275  2 -0.3171 10.820300 13.139600  3.321880
276  2 -0.3168 12.536600 16.863400  3.342000
277  2 -0.3062  6.533920 20.495400  3.416310
278  2 -0.3516  8.764990  2.261200  3.381080
279  2 -0.2887 10.881300  5.634450  3.462760
280  2 -0.3409 12.776300  9.202970  3.277810
281  2 -0.2649 14.766900 13.008800  3.539470
282  2 -0.3203 16.948300 16.293500  3.317030
283  2 -0.3392 10.739900 20.535800  3.461770
284  2 -0.3730 12.994000  2.124490  3.444470
285  2 -0.3634 14.721800  5.648770  3.274080
286  2 -0.3600  0.094750  9.095950  3.171670
287  2 -0.3935 14.676400 20.496900  3.144040
288  2 -0.2947 17.223000  2.034710  3.588220
289  2 -0.9149  2.159690 15.796300 19.631300
290  2 -0.8865  3.984990 19.525200 19.442100
291  2 -0.8395  2.394010  8.271290 19.568000
292  2 -0.9251  4.517170 12.004800 19.769000
293  2 -0.8706  6.353970 15.521100 19.630500
294  2 -0.8769  8.191720 19.202700 19.572200
295  2 -0.8647  2.037670  0.980652 20.041100
296  2 -0.8575  4.583580  4.556510 19.791700
297  2 -0.8858  6.741700  8.479290 19.574200
298  2 -0.8869  8.678320 12.072200 19.694600
299  2 -0.8333 10.607600 15.724100 19.868900
300  2 -0.8767 12.216500 19.231200 19.676600
301  2 -0.8970  6.186550  0.805349 19.694300
302  2 -0.8589  8.595260  4.723150 19.753000
303  2 -0.8404 10.702800  8.179200 19.609500
304  2 -0.8595 12.683000 11.952800 19.516900
305  2 -0.9463 14.956800 15.884100 19.684500
306  2 -0.8706  0.195052 19.625000 19.780500
307  2 -0.9443 10.262100  0.917900 19.493000
308  2 -0.8574 12.819500  4.515810 19.353500
309  2 -0.8780 15.151300  8.518530 19.680400
310  2 -0.8827 16.901300 12.213300 19.652900
311  2 -0.8851 15.000000  0.963807 19.691500
312  2 -0.8639  0.444418  4.812650 19.989100
313  2 -0.2949  1.982170 12.943200 16.171300
314  2 -0.3119  4.226820 17.037500 16.085200
315  2 -0.3675  2.493670  5.616340 16.341700
316  2 -0.3328  4.453270  9.449110 16.180400
317  2 -0.3332  6.347050 12.864600 16.158900
318  2 -0.4068  7.958480 16.869400 16.464600
319  2 -0.3419  2.582160 20.653600 16.328600
320  2 -0.2462  4.045250  2.124490 15.882400
321  2 -0.3693  6.942020  5.909740 16.042300
322  2 -0.2734  8.627120  9.307110 15.929000
323  2 -0.2557 10.224100 13.254800 15.679600
324  2 -0.2815 12.628400 17.108200 15.928000
325  2 -0.3054  6.389730 20.662800 16.033500
326  2 -0.3942  8.573840  2.275480 16.160300
327  2 -0.3038 10.779500  5.720370 16.240700
328  2 -0.3590 13.064200  9.791660 16.207600
329  2 -0.3205 14.932500 13.798800 16.210900
330  2 -0.3144 -0.439745 17.044300 16.355800
331  2 -0.3809 10.717500 20.478200 16.120600
332  2 -0.2026 12.489100  2.127840 15.662300
333  2 -0.3874 14.791000  5.653300 16.211700
334  2 -0.3218  0.191505  9.865610 16.145700
335  2 -0.3365 14.761300 20.478900 16.242200
336  2 -0.3478  0.345801  2.449800 16.262500
337  2 -0.3942  2.364460 15.743300 12.684800
338  2 -0.2866  3.752030 19.405000 13.187600
339  2 -0.3523  2.299180  8.438120 13.095500
340  2 -0.2915  3.954110 11.966500 12.950800
341  2 -0.3326  6.718840 15.709000 12.922400
342  2 -0.3885  8.030190 19.562800 13.077600
343  2 -0.3409  1.973800  1.252220 12.873800
344  2 -0.4033  4.467680  4.510600 13.071800
345  2 -0.3704  6.308290  8.282720 13.250100
346  2 -0.3638  8.470870 11.933900 12.893800
347  2 -0.2490 10.492900 16.128700 13.389200
348  2 -0.3722 13.060900 19.112600 12.846800
349  2 -0.3424  6.743370  1.506290 13.094600
350  2 -0.3564  8.504400  4.780600 12.982800
351  2 -0.2775 10.793900  8.420910 13.390900
352  2 -0.3162 12.903400 12.424600 13.349500
353  2 -0.3576 15.046200 15.530900 12.820700
354  2 -0.2474 -0.118903 19.394900 13.368500
355  2 -0.3735 10.574400  0.920412 12.868500
356  2 -0.2726 12.627800  4.753070 13.161600
357  2 -0.3507 15.174200  7.914510 13.135500
358  2 -0.3360  0.467441 12.205000 12.630400
359  2 -0.3102 14.897500  0.793547 13.207600
360  2 -0.4014  0.037922  4.376830 13.092600

