Generated by pymatgen.io.lammps.data.LammpsData

320  atoms

  2  atom types

0.000000 24.637781  xlo xhi
0.000000 17.058433  ylo yhi
0.000000 27.370788  zlo zhi

Masses

1  208.9804
2   78.9600

Atoms

1    1  0.7485 -1.982690 17.962000  0.800630
2    1  0.6518 21.590400 18.177400 14.619800
3    1  0.6793 -2.007060  9.402680  1.133480
4    1  0.7012 21.697500  9.954680 15.303100
5    1  0.7485 10.376500 17.569000  1.261790
6    1  0.7546  8.961110 18.312200 14.374200
7    1  0.7349 10.308100  9.646140  0.747800
8    1  0.6499  8.940190  9.896940 14.073300
9    1  0.8101  3.512270  5.629010  9.761790
10   1  0.8154  4.588930  5.151150 24.054000
11   1  0.7268  3.324940 14.392200  9.911620
12   1  0.6991  4.205440 13.863900 24.356400
13   1  0.7498 15.956300  5.630210 10.616600
14   1  0.7296 16.856500  5.393850 23.807000
15   1  0.8090 15.744800 14.426600 10.392800
16   1  0.7698 16.640400 13.756600 24.181700
17   1  0.6444  3.695180  5.418840  5.677250
18   1  0.7171  4.257060  5.347270 19.142300
19   1  0.7478  2.979230 14.151500  5.833870
20   1  0.7336  4.026350 14.410900 19.813900
21   1  0.6153 14.774700  5.597970  5.488820
22   1  0.6820 16.722200  5.038420 19.352300
23   1  0.8080 15.741700 14.080000  5.540710
24   1  0.6091 16.399700 14.489100 19.806400
25   1  0.7241 21.996200  1.843700 10.039900
26   1  0.7569 -2.015450 18.063400 24.236900
27   1  0.7827 21.303200  9.984860 10.367300
28   1  0.7771 -1.230670  9.730970 23.784800
29   1  0.7735  9.543060  1.552860 10.111100
30   1  0.7239 10.364500 18.451100 23.696700
31   1  0.7422  9.102730 10.056200 10.047900
32   1  0.7008 10.391600  9.423110 23.865100
33   1  0.7022 -2.112060  5.019680  0.659688
34   1  0.7487 22.352400  5.503680 14.777900
35   1  0.6993 -2.116130 13.220000  1.467030
36   1  0.6703 21.885700 13.738000 14.742000
37   1  0.7675  9.625910  5.435830  1.263430
38   1  0.6560  9.356540  5.772920 14.094000
39   1  0.6897 10.575200 13.774100  0.368768
40   1  0.7025  9.363030 14.057500 14.543100
41   1  0.7450 21.504100  5.656280 10.222900
42   1  0.8230 -1.843950  5.240600 24.095600
43   1  0.7908 21.847700 13.743800 10.077600
44   1  0.7800 -1.675570 14.025600 24.144500
45   1  0.7490  9.354090  5.375430 10.112700
46   1  0.6892 10.475100  5.280540 24.269400
47   1  0.7005  9.193220 14.154100 10.389000
48   1  0.7762 10.327200 13.565500 23.711000
49   1  0.6954  3.398390  1.455760  5.243420
50   1  0.7218  3.636240  1.436020 19.774900
51   1  0.7472  3.403160 10.203000  6.313020
52   1  0.7420  4.295490  9.729260 20.158500
53   1  0.6733 15.618900 18.219600  5.993870
54   1  0.6686 16.071200 18.163300 19.352400
55   1  0.7166 16.023900  9.775080  6.172550
56   1  0.7203 16.198900  9.691840 19.842800
57   1  0.7779  3.202250 18.318000 10.135300
58   1  0.7432  4.552340  1.484220 23.839600
59   1  0.6727  2.972020 10.166200 10.641900
60   1  0.7773  4.519490  9.496800 23.850500
61   1  0.7641 15.757800 18.428000  9.862990
62   1  0.7867 16.636000  1.213040 24.430200
63   1  0.7953 15.507900 10.300900  9.958260
64   1  0.7042 16.611300  9.331910 23.761600
65   1  0.7012  0.583665  7.301720 26.730700
66   1  0.7786  0.006978  7.994380 12.558100
67   1  0.8210  1.035170 16.070700 25.918300
68   1  0.7813 -0.110573 16.085200 12.449900
69   1  0.7194 13.106700  7.392070 26.218800
70   1  0.7469 11.909500  8.038190 11.789900
71   1  0.8282 13.338100 15.983700 26.108000
72   1  0.8127 12.793600 16.572400 12.161300
73   1  0.8451  7.401630  7.595440 26.087600
74   1  0.8077  5.997940  7.925910 11.983000
75   1  0.6815  7.464890 16.119600 25.832200
76   1  0.7288  6.531910 16.342100 12.349400
77   1  0.7927 19.789400  7.685920 25.497100
78   1  0.6943 18.727900  7.759530 12.384000
79   1  0.7752 20.039600 15.791700 26.026300
80   1  0.7342 19.026900 16.194000 12.695500
81   1  0.8388  1.168700  3.134560 26.422600
82   1  0.7968  0.076344  3.512600 12.214700
83   1  0.8032  1.408150 11.806200 26.734800
84   1  0.7014 -0.173583 11.901000 12.637300
85   1  0.7441 13.516100  3.319220 26.542600
86   1  0.7770 12.033900  3.486060 12.519200
87   1  0.8252 13.491900 11.708400 25.649600
88   1  0.7101 12.180900 12.283900 12.371700
89   1  0.7506  7.328500  2.892990 25.927300
90   1  0.8355  6.619930  3.711480 12.564100
91   1  0.8347  7.299280 11.592600 26.065300
92   1  0.7707  6.338130 11.974200 12.224300
93   1  0.7740 19.714000  3.259830 26.057600
94   1  0.7396 18.802900  3.393720 12.602300
95   1  0.7480 19.721400 11.654900 26.247500
96   1  0.7795 19.033600 12.112200 12.642900
97   1  0.8060  0.574469  7.747240  8.117240
98   1  0.7357  1.480390  7.532900 22.015100
99   1  0.7577  0.322166 16.049500  7.850640
100  1  0.7309  1.320750 16.475600 22.153100
101  1  0.7956 12.855800  7.811190  8.047590
102  1  0.8041 13.550800  7.377680 21.829700
103  1  0.8138 12.323100 16.177500  8.232270
104  1  0.7963 13.016100 16.078100 22.182200
105  1  0.7706  6.255230  7.919220  8.355250
106  1  0.8024  7.035830  7.343950 22.020900
107  1  0.7470  6.205240 16.620700  8.409060
108  1  0.7494  7.027410 16.694900 21.304700
109  1  0.8099 18.403800  7.836450  8.284320
110  1  0.8008 19.351200  7.263110 21.537900
111  1  0.7742 18.447100 16.300300  8.204820
112  1  0.7168 19.228900 15.914000 21.685900
113  1  0.6577  0.823147  3.308380  7.922200
114  1  0.8382  1.062540  3.558270 21.731200
115  1  0.8472 -0.005578 11.986800  7.998000
116  1  0.7996  1.264060 11.763100 22.295600
117  1  0.8252 12.478700  3.606760  8.237620
118  1  0.7636 13.964300  3.247320 21.648900
119  1  0.7928 12.612600 11.941200  7.582550
120  1  0.7377 13.475800 11.921300 22.149700
121  1  0.7777  6.603510  3.764330  7.063910
122  1  0.8299  7.210510  3.608830 21.477200
123  1  0.7417  6.124940 11.926000  8.209660
124  1  0.7867  7.051890 11.931600 22.032800
125  1  0.7253 18.286600  3.131060  7.943970
126  1  0.7948 19.699400  3.258700 21.354600
127  1  0.8257 18.483900 11.985900  8.072050
128  1  0.7998 19.352000 11.688900 22.004100
129  2 -0.7211  6.320030  5.576960 10.185500
130  2 -0.7831  7.425000  5.273810 23.886300
131  2 -0.8393  6.114810 14.371800 10.228500
132  2 -0.7702  7.352800 13.772800 24.124500
133  2 -0.8070 18.583000  5.536860 10.340000
134  2 -0.7921 19.753000  5.645150 23.750900
135  2 -0.7156 18.696100 14.300700 10.302200
136  2 -0.7990 19.703100 13.558300 24.423000
137  2 -0.6884  0.253838  5.911520 10.101500
138  2 -0.6851  0.919852  4.997690 24.211700
139  2 -0.7543  0.018356 13.949300  9.840000
140  2 -0.8094  1.179230 13.850800 24.348000
141  2 -0.7488 12.342100  5.806890 10.004800
142  2 -0.7425 13.698400  5.308100 24.055900
143  2 -0.7298 12.511300 14.146100 10.016000
144  2 -0.8302 13.382900 13.942100 24.106400
145  2 -0.0592 17.369300  4.080600  2.828520
146  2 -0.0738 -0.546902  3.282530 17.807200
147  2 -0.0391 18.714000 11.538200  3.231290
148  2 -0.0907 -2.029500 12.595100 18.037200
149  2 -0.0914 10.282900  2.562860  4.075790
150  2 -0.0726  9.992260  4.488760 17.469700
151  2  0.0467  5.865960 11.983900  2.834570
152  2 -0.0407 10.808100 12.671900 18.148500
153  2 -0.0344 21.111400  5.346670  3.803640
154  2 -0.1857 20.981400  7.713930 17.520500
155  2 -0.0313 19.210000 15.874100  3.172350
156  2 -0.0102  0.693593 16.450100 17.134400
157  2 -0.0094  8.928790  7.660100  4.382160
158  2 -0.0433 15.496300  8.860210 16.185200
159  2 -0.0397  9.219770 14.362500  5.336970
160  2 -0.0975  9.690900 17.818600 17.685800
161  2 -0.6685  6.348560  1.721650 10.295400
162  2 -0.8362  7.435880 18.556700 23.566500
163  2 -0.9065  5.921210  9.837580 10.237500
164  2 -0.8284  7.145910  9.702450 24.038500
165  2 -0.7577 18.445400 18.262300 10.154700
166  2 -0.7381 19.367200 17.943400 23.888700
167  2 -0.8000 18.477000 10.070700 10.047700
168  2 -0.7051 20.350700  9.291100 23.349800
169  2 -0.7540  0.152065 18.279900 10.338400
170  2 -0.7063  1.339810 18.720900 23.973800
171  2 -0.7374 -0.523237  9.747870 10.396300
172  2 -0.7911  1.260530  9.531930 24.371900
173  2 -0.7754 12.644000  1.340690 10.114500
174  2 -0.7310 13.631800 18.227300 24.123900
175  2 -0.7545 12.537100  9.838130  9.765260
176  2 -0.8095 13.557200  9.648510 23.895500
177  2 -0.1385  8.437600  3.777220  3.521060
178  2 -0.0687  1.340840  2.793280 16.899600
179  2 -0.1427  3.668780 11.637300  3.042510
180  2  0.0207  0.326352 12.172500 17.656900
181  2 -0.1051 16.455900  2.075250  2.475240
182  2  0.0138 12.234600  3.781010 17.247100
183  2 -0.1207 16.510100 11.499600  3.171330
184  2 -0.0259 12.507100 11.602400 17.144600
185  2 -0.1073 10.796900  8.730820  4.257920
186  2 -0.1839  5.093370  8.370500 17.271200
187  2 -0.0485  8.617900 12.455100  4.096000
188  2 -0.0932  2.950350 16.471400 16.738600
189  2 -0.0225 20.833600  7.675690  4.009990
190  2 -0.0336 14.357300  6.849930 16.333900
191  2 -0.0168 17.315600 15.779700  2.416450
192  2 -0.0255 11.266900 16.387300 17.642300
193  2 -0.3867  0.632841  5.488870  5.533030
194  2 -0.4595  1.236100  5.381260 19.668600
195  2 -0.5326  0.240448 13.941300  5.955560
196  2 -0.4472  1.307490 13.700800 20.458000
197  2 -0.4162 11.925300  5.845770  6.143970
198  2 -0.4131 13.543300  5.511950 19.835700
199  2 -0.4274 13.046800 14.157300  5.257940
200  2 -0.4367 13.366200 14.570700 19.872300
201  2 -0.4531  6.467100  5.951970  5.571200
202  2 -0.5178  6.900250  5.621280 19.737000
203  2 -0.3083  5.871000 14.304400  5.566030
204  2 -0.3742  6.656070 13.651400 18.956800
205  2 -0.3346 18.619500  5.443000  6.149630
206  2 -0.4445 19.609100  5.468010 19.287600
207  2 -0.4840 18.290600 14.281300  6.027500
208  2 -0.4067 19.671200 13.743800 19.884700
209  2 -0.7993 21.798200  7.681340 12.702700
210  2 -0.8669 -2.017330  7.325850 25.931500
211  2 -0.7776 21.637700 16.259800 11.774600
212  2 -0.8778 -1.711880 15.884200 26.104600
213  2 -0.9112  9.021900  7.784620 11.758800
214  2 -0.9234  9.897020  7.539820 26.354200
215  2 -0.8515  9.721400 16.505100 12.324500
216  2 -0.8567 10.500100 16.086700 26.138800
217  2 -0.8580 21.824900  3.543200 12.305300
218  2 -0.8926 -1.850930  3.122530 25.890700
219  2 -0.9504 21.599800 11.830000 12.526100
220  2 -0.7937 -1.733570 11.852800 26.339200
221  2 -0.9458  9.235440  3.211340 12.320700
222  2 -0.7969 10.083600  3.260170 26.427800
223  2 -0.9528  9.156940 12.211800 12.368700
224  2 -0.8894 10.243000 11.666300 25.939500
225  2 -0.5403  0.740917 17.857500  0.565635
226  2 -0.4590 -0.001011 18.172900 14.051800
227  2 -0.4866  0.598513 10.064000  1.615810
228  2 -0.3989  0.269591 10.015400 14.922100
229  2 -0.4859 13.043300 17.627700  1.157280
230  2 -0.3873 12.125600  1.635780 14.526700
231  2 -0.3943 13.337800  9.832640  0.673572
232  2 -0.4028 11.809200  9.626620 14.518700
233  2 -0.2511  7.453560  1.418730  2.071000
234  2 -0.4703  6.354770  1.150820 14.570800
235  2 -0.3955  7.483840  9.875610  0.982654
236  2 -0.3859  5.742930 10.192900 14.139600
237  2 -0.5337 19.922400 17.990200  0.312903
238  2 -0.4704 18.767600 18.323300 15.008400
239  2 -0.4222 19.903300  9.172500  0.897567
240  2 -0.3644 18.756700 10.255700 14.959700
241  2 -0.8795  3.242770  7.708880  7.899930
242  2 -0.8924  4.287800  7.342740 22.288200
243  2 -0.8737  3.318580 16.312100  7.946940
244  2 -0.9200  4.300400 16.593500 21.733000
245  2 -0.9076 15.740100  8.241160  8.364000
246  2 -0.9102 16.584200  7.149480 21.692300
247  2 -0.8267 15.402500 16.131000  8.059870
248  2 -0.7984 16.162100 16.040900 22.290200
249  2 -0.8436  3.721010  3.298730  8.230600
250  2 -0.8496  4.296210  3.489250 21.838500
251  2 -0.8910  2.786120 12.212800  8.082900
252  2 -0.8809  4.189470 11.844900 21.912400
253  2 -0.8421 15.388400  3.758780  8.226200
254  2 -0.8361 16.883400  3.035340 21.545800
255  2 -0.8139 15.627700 12.481000  8.058190
256  2 -0.8930 16.634900 11.562100 22.281200
257  2 -0.3835  6.806690  5.883840  0.787041
258  2 -0.4685  6.380020  5.736710 14.406200
259  2 -0.3884  7.441320 14.346700  0.776892
260  2 -0.3937  6.589660 13.919700 14.759700
261  2 -0.3917 19.617100  5.635050  0.388285
262  2 -0.4009 19.103800  5.413460 15.123100
263  2 -0.4062 19.631500 13.631600  0.947715
264  2 -0.4934 19.193800 13.732700 15.129200
265  2 -0.5135  0.551958  4.932860  1.423760
266  2 -0.4583  0.264844  5.469800 14.321600
267  2 -0.3643  1.030590 13.891300  1.490970
268  2 -0.5064 -0.116115 14.001800 14.573400
269  2 -0.4882 12.975000  5.394590  1.149380
270  2 -0.4586 12.287700  5.727650 13.963500
271  2 -0.4213 13.541600 13.759900  0.403451
272  2 -0.4127 12.549200 14.441900 14.393100
273  2 -0.4283 21.397700  4.018920  8.000120
274  2 -0.4749 -2.064370  2.966150 22.128800
275  2 -0.4834 21.626400 11.603500  8.143500
276  2 -0.4386 -1.786440 12.030800 22.118800
277  2 -0.5361  9.620620  3.479590  8.143940
278  2 -0.4311 10.567100  3.205210 21.801000
279  2 -0.5293  9.330650 12.164400  8.402700
280  2 -0.4670 10.006300 11.732400 21.775300
281  2 -0.3476 21.612000  7.900480  8.155400
282  2 -0.3868 -1.673540  7.278720 21.768400
283  2 -0.4083 21.870200 15.874900  8.162520
284  2 -0.4228 -1.942200 16.338300 21.939000
285  2 -0.3784  9.280170  8.139150  7.924990
286  2 -0.4316 10.558200  7.326110 21.888500
287  2 -0.4468  9.390710 16.833400  7.943010
288  2 -0.5107 10.084100 15.704500 22.015700
289  2 -0.4366  5.919280 18.471400  5.264320
290  2 -0.4727  6.618560 18.635300 19.141400
291  2 -0.4847  6.028240 10.234400  6.294940
292  2 -0.3738  7.282410  9.421330 19.907500
293  2 -0.4342 18.453400 18.207000  5.710030
294  2 -0.4612 18.998600 18.060900 19.088000
295  2 -0.4925 18.775000  9.898550  6.455940
296  2 -0.4141 18.908100 10.178600 19.549000
297  2 -0.4773  0.493104  1.719860  5.400470
298  2 -0.4746  0.913014  1.303000 20.124500
299  2 -0.3743  0.093250  9.781420  5.853270
300  2 -0.4654  1.623870  9.752430 20.019200
301  2 -0.4445 12.704600 18.418400  6.115460
302  2 -0.4496 13.362000 18.599300 19.832200
303  2 -0.4745 13.246200 10.020700  5.480230
304  2 -0.4406 13.428600  9.684850 20.167600
305  2 -0.4058  3.365390  3.737780 11.767400
306  2 -0.5596  4.538990  2.987350 26.075800
307  2 -0.4035  3.283350 12.410000 12.622700
308  2 -0.4829  4.590670 11.645000 26.252100
309  2 -0.4330 15.674200  3.400760 12.359100
310  2 -0.5139 16.886900  3.535330 26.024700
311  2 -0.4895 15.817600 12.418200 12.072100
312  2 -0.4329 16.417200 11.355800 25.955500
313  2 -0.5069  3.045390  7.540630 11.916300
314  2 -0.4687  4.636180  7.474400 25.893400
315  2 -0.3721  3.341870 16.556000 12.459000
316  2 -0.4446  3.861960 15.925800 26.439900
317  2 -0.3645 15.626600  8.451360 12.558500
318  2 -0.3632 16.570500  7.625880 26.279400
319  2 -0.5054 15.591300 16.839100 12.137800
320  2 -0.3765 16.419600 15.454700 26.331200

