Generated by pymatgen.io.lammps.data.LammpsData

320  atoms

  2  atom types

0.000000 16.544689  xlo xhi
0.000000 22.607810  ylo yhi
0.000000 24.472453  zlo zhi

Masses

1  208.9804
2   78.9600

Atoms

1    1  0.8548  1.038560 11.454500 10.556100
2    1  0.8550  1.040680 11.454600 22.788900
3    1  0.8546  1.038990 22.757800 10.556100
4    1  0.8549  1.039160 22.758300 22.790300
5    1  0.8546  5.173340 11.453400 10.554000
6    1  0.8546  5.174120 11.453000 22.788600
7    1  0.8548  5.175090 22.758100 10.555000
8    1  0.8546  5.176100 22.758500 22.790300
9    1  0.8551  9.310550 11.453200 10.553100
10   1  0.8544  9.312280 11.453300 22.789600
11   1  0.8544  9.312300 22.758000 10.554500
12   1  0.8547  9.311040 22.758600 22.791500
13   1  0.8545 13.448000 11.453100 10.554900
14   1  0.8547 13.447800 11.451800 22.791000
15   1  0.8550 13.447800 22.758600 10.554000
16   1  0.8547 13.448200 22.758400 22.790400
17   1  0.8546  3.106130  0.464873  1.684610
18   1  0.8546  3.106950  0.463246 13.922300
19   1  0.8549  3.107420 11.768400  1.682450
20   1  0.8548  3.108300 11.768500 13.921700
21   1  0.8545  7.244180  0.463922  1.685780
22   1  0.8545  7.243000  0.464938 13.920800
23   1  0.8547  7.242790 11.767200  1.682210
24   1  0.8550  7.243740 11.767000 13.920800
25   1  0.8548 11.377900  0.463751  1.685560
26   1  0.8548 11.380200  0.464761 13.921600
27   1  0.8546 11.379800 11.767000  1.682690
28   1  0.8549 11.380600 11.767900 13.920200
29   1  0.8546 15.515800  0.465647  1.684460
30   1  0.8547 15.514900  0.463005 13.920900
31   1  0.8550 15.515200 11.767100  1.684680
32   1  0.8547 15.516600 11.767900 13.921200
33   1  0.8549  3.106460  5.800520  7.799680
34   1  0.8550  3.106360  5.803040 20.033900
35   1  0.8550  3.107640 17.105400  7.799290
36   1  0.8545  3.105570 17.106000 20.036500
37   1  0.8547  7.242560  5.802150  7.800080
38   1  0.8551  7.243320  5.802470 20.035400
39   1  0.8547  7.242700 17.105700  7.798090
40   1  0.8546  7.243420 17.105500 20.037000
41   1  0.8546 11.378300  5.800810  7.800920
42   1  0.8548 11.380900  5.801840 20.033000
43   1  0.8548 11.380400 17.105300  7.798040
44   1  0.8548 11.379000 17.105100 20.037100
45   1  0.8552 15.514600  5.802290  7.800220
46   1  0.8553 15.515600  5.803570 20.032300
47   1  0.8549 15.515100 17.105300  7.798720
48   1  0.8547 15.515600 17.105100 20.036300
49   1  0.8548  1.040350  6.116190  4.436330
50   1  0.8548  1.039560  6.115860 16.664000
51   1  0.8549  1.039880 17.419600  4.432610
52   1  0.8548  1.039440 17.418400 16.669700
53   1  0.8550  5.175720  6.117150  4.433510
54   1  0.8546  5.175150  6.116140 16.668100
55   1  0.8545  5.174940 17.419300  4.433080
56   1  0.8547  5.175080 17.420100 16.670200
57   1  0.8544  9.312810  6.115410  4.434000
58   1  0.8546  9.311190  6.116320 16.668700
59   1  0.8546  9.310440 17.421600  4.431850
60   1  0.8549  9.311550 17.418900 16.669700
61   1  0.8550 13.449000  6.115570  4.433060
62   1  0.8548 13.446800  6.116980 16.667300
63   1  0.8546 13.448900 17.419900  4.432330
64   1  0.8549 13.448400 17.419400 16.669900
65   1  0.8663  1.039440  2.404240  5.894990
66   1  0.8669  1.038300  2.406990 18.130300
67   1  0.8668  1.038670 13.709300  5.894400
68   1  0.8667  1.037220 13.708900 18.130500
69   1  0.8668  5.173990  2.406320  5.894710
70   1  0.8667  5.175630  2.405320 18.131700
71   1  0.8666  5.174510 13.709700  5.895070
72   1  0.8666  5.177150 13.710200 18.134100
73   1  0.8664  9.311550  2.405660  5.895920
74   1  0.8668  9.312140  2.405180 18.129800
75   1  0.8667  9.310200 13.706500  5.895040
76   1  0.8667  9.310680 13.710400 18.130700
77   1  0.8669 13.450000  2.407600  5.895550
78   1  0.8667 13.447600  2.404420 18.128200
79   1  0.8664 13.451600 13.710400  5.896770
80   1  0.8666 13.447600 13.709600 18.129900
81   1  0.8665  3.105070  9.512140  6.343330
82   1  0.8666  3.104070  9.510240 18.576000
83   1  0.8667  3.105380 20.817600  6.343890
84   1  0.8664  3.106080 20.817200 18.577200
85   1  0.8664  7.243120  9.512330  6.342960
86   1  0.8668  7.245350  9.512360 18.578000
87   1  0.8665  7.242230 20.814700  6.338940
88   1  0.8665  7.243990 20.816700 18.578100
89   1  0.8665 11.381500  9.509980  6.339600
90   1  0.8665 11.379300  9.512170 18.578700
91   1  0.8664 11.380300 20.816200  6.340010
92   1  0.8668 11.379600 20.815700 18.578800
93   1  0.8665 15.516400  9.513490  6.344380
94   1  0.8667 15.518100  9.511630 18.576300
95   1  0.8667 15.517900 20.814100  6.341510
96   1  0.8666 15.515300 20.815900 18.575700
97   1  0.8667  3.107960  8.057980 12.461300
98   1  0.8666  3.105650  8.058360  0.222641
99   1  0.8668  3.107880 19.359600 12.460900
100  1  0.8667  3.104660 19.361900  0.222263
101  1  0.8668  7.245090  8.056710 12.461500
102  1  0.8665  7.243790  8.056170  0.224438
103  1  0.8664  7.244430 19.361000 12.459700
104  1  0.8669  7.244950 19.361300  0.223540
105  1  0.8666 11.378800  8.057800 12.459000
106  1  0.8665 11.380000  8.058990  0.223557
107  1  0.8664 11.379800 19.361200 12.460100
108  1  0.8667 11.378700 19.361200  0.223340
109  1  0.8669 15.516100  8.056010 12.463000
110  1  0.8667 15.517500  8.055640  0.223733
111  1  0.8669 15.514400 19.361600 12.460700
112  1  0.8664 15.518500 19.360500  0.223841
113  1  0.8667  1.037720  3.860220 24.247600
114  1  0.8665  1.039080  3.859210 12.016600
115  1  0.8665  1.037900 15.164500 24.247900
116  1  0.8669  1.039530 15.162700 12.013100
117  1  0.8662  5.175600  3.860590 24.249600
118  1  0.8667  5.177180  3.860980 12.015400
119  1  0.8669  5.174450 15.162400 24.249300
120  1  0.8664  5.175980 15.163700 12.013600
121  1  0.8668  9.309110  3.859040 24.249700
122  1  0.8663  9.310870  3.859040 12.015500
123  1  0.8665  9.312620 15.166200 24.249800
124  1  0.8667  9.310690 15.162900 12.012500
125  1  0.8664 13.450000  3.859470 24.250600
126  1  0.8668 13.447200  3.860370 12.014800
127  1  0.8665 13.449300 15.161500 24.250500
128  1  0.8665 13.448300 15.164400 12.011800
129  2 -0.5339  1.038070  3.901810  8.406340
130  2 -0.5342  1.037600  3.902370 20.637700
131  2 -0.5343  1.038960 15.206900  8.404140
132  2 -0.5343  1.037300 15.204500 20.641200
133  2 -0.5340  5.175730  3.901190  8.405160
134  2 -0.5341  5.175420  3.903160 20.641800
135  2 -0.5345  5.174900 15.205500  8.403390
136  2 -0.5340  5.175360 15.203100 20.643900
137  2 -0.5342  9.310860  3.900080  8.406790
138  2 -0.5338  9.311740  3.901610 20.639400
139  2 -0.5336  9.311530 15.203900  8.405870
140  2 -0.5344  9.312680 15.205200 20.639600
141  2 -0.5341 13.448800  3.901150  8.405640
142  2 -0.5339 13.448200  3.902610 20.638900
143  2 -0.5346 13.448400 15.205000  8.406130
144  2 -0.5336 13.447500 15.202900 20.642200
145  2 -0.5340  3.106470  8.017270  3.831240
146  2 -0.5343  3.108200  8.020000 16.063300
147  2 -0.5338  3.106890 19.320400  3.830460
148  2 -0.5340  3.105860 19.321400 16.065400
149  2 -0.5341  7.242630  8.016610  3.830130
150  2 -0.5341  7.243890  8.018760 16.066100
151  2 -0.5345  7.242100 19.322600  3.828560
152  2 -0.5338  7.244430 19.321500 16.066600
153  2 -0.5343 11.380300  8.017890  3.829280
154  2 -0.5340 11.378600  8.019010 16.065900
155  2 -0.5339 11.381200 19.322000  3.826070
156  2 -0.5338 11.380100 19.321000 16.067500
157  2 -0.5340 15.516700  8.015220  3.831660
158  2 -0.5342 15.515800  8.018430 16.063000
159  2 -0.5341 15.517700 19.321500  3.829470
160  2 -0.5341 15.514800 19.320900 16.064700
161  2 -0.5342  3.106250  9.551810  9.950500
162  2 -0.5344  3.105710  9.552770 22.183300
163  2 -0.5339  3.105930 20.856500  9.949810
164  2 -0.5342  3.106820 20.857900 22.183900
165  2 -0.5342  7.243960  9.553980  9.950310
166  2 -0.5339  7.242850  9.551910 22.184200
167  2 -0.5337  7.243120 20.856700  9.948300
168  2 -0.5343  7.243570 20.858000 22.186300
169  2 -0.5339 11.378800  9.552220  9.947380
170  2 -0.5346 11.379800  9.550670 22.185300
171  2 -0.5338 11.381200 20.857200  9.946910
172  2 -0.5341 11.379000 20.857300 22.186100
173  2 -0.5342 15.516500  9.552710  9.951960
174  2 -0.5338 15.518200  9.553390 22.184000
175  2 -0.5339 15.516700 20.856200  9.950340
176  2 -0.5339 15.515300 20.857600 22.183400
177  2 -0.5345  1.038810  2.364440  2.286290
178  2 -0.5343  1.038250  2.366090 14.526700
179  2 -0.5338  1.038900 13.668900  2.288900
180  2 -0.5342  1.038820 13.670200 14.523700
181  2 -0.5338  5.176400  2.367150  2.289960
182  2 -0.5341  5.175070  2.365690 14.526300
183  2 -0.5345  5.175070 13.668400  2.285010
184  2 -0.5339  5.176390 13.668800 14.526200
185  2 -0.5344  9.311200  2.365280  2.288080
186  2 -0.5344  9.312300  2.365900 14.526100
187  2 -0.5335  9.312080 13.668400  2.289670
188  2 -0.5342  9.311060 13.668700 14.522000
189  2 -0.5340 13.445900  2.366060  2.290350
190  2 -0.5342 13.448100  2.365970 14.526200
191  2 -0.5342 13.449100 13.668000  2.288570
192  2 -0.5339 13.447000 13.670400 14.525200
193  2 -0.4788  1.036940 10.951300  4.730610
194  2 -0.4788  1.039320 10.953200 16.959700
195  2 -0.4788  1.038690 22.253600  4.726410
196  2 -0.4786  1.038600 22.255700 16.961400
197  2 -0.4782  5.174140 10.951500  4.725550
198  2 -0.4781  5.175280 10.952100 16.965500
199  2 -0.4785  5.174060 22.256700  4.726900
200  2 -0.4786  5.175630 22.255400 16.961900
201  2 -0.4784  9.311870 10.951200  4.727240
202  2 -0.4786  9.311600 10.952900 16.962400
203  2 -0.4786  9.310870 22.255000  4.725020
204  2 -0.4784  9.312110 22.254900 16.962500
205  2 -0.4782 13.450500 10.950900  4.725680
206  2 -0.4784 13.447500 10.951200 16.963400
207  2 -0.4781 13.449200 22.256800  4.726530
208  2 -0.4787 13.446800 22.255000 16.961000
209  2 -0.4788  3.106450  0.966705  7.511340
210  2 -0.4784  3.106160  0.967064 19.746100
211  2 -0.4785  3.106810 12.271600  7.510420
212  2 -0.4781  3.105220 12.270000 19.746300
213  2 -0.4780  7.243130  0.966703  7.509060
214  2 -0.4787  7.243390  0.968181 19.745100
215  2 -0.4787  7.241720 12.269700  7.510830
216  2 -0.4786  7.245940 12.269500 19.747400
217  2 -0.4782 11.380000  0.966737  7.509840
218  2 -0.4785 11.380600  0.966046 19.745800
219  2 -0.4781 11.380500 12.268900  7.509500
220  2 -0.4781 11.379100 12.270200 19.747200
221  2 -0.4784 15.516300  0.965620  7.510350
222  2 -0.4783 15.515400  0.967604 19.743600
223  2 -0.4789 15.516700 12.270900  7.512560
224  2 -0.4783 15.517000 12.269100 19.744600
225  2 -0.4782  3.104140  5.300770  1.392110
226  2 -0.4790  3.107850  5.299190 13.630700
227  2 -0.4786  3.105850 16.605000  1.389490
228  2 -0.4784  3.107850 16.602200 13.630200
229  2 -0.4787  7.244320  5.300820  1.392610
230  2 -0.4792  7.243110  5.299910 13.631200
231  2 -0.4785  7.243690 16.602700  1.392500
232  2 -0.4788  7.243230 16.603800 13.627800
233  2 -0.4779 11.379000  5.300170  1.392320
234  2 -0.4786 11.379200  5.300300 13.630400
235  2 -0.4785 11.379100 16.601900  1.393380
236  2 -0.4784 11.381000 16.603800 13.628100
237  2 -0.4788 15.518600  5.298220  1.391780
238  2 -0.4789 15.514300  5.299980 13.630500
239  2 -0.4789 15.518500 16.602200  1.392860
240  2 -0.4783 15.515400 16.603200 13.627600
241  2 -0.4780  1.037610  6.618620 10.848800
242  2 -0.4785  1.038140  6.619270 23.079600
243  2 -0.4781  1.039150 17.920500 10.848700
244  2 -0.4789  1.038090 17.923300 23.078400
245  2 -0.4783  5.176040  6.617510 10.845800
246  2 -0.4783  5.174370  6.619460 23.082000
247  2 -0.4783  5.174990 17.922800 10.844700
248  2 -0.4780  5.176580 17.922600 23.081400
249  2 -0.4785  9.310800  6.618690 10.846000
250  2 -0.4781  9.312110  6.616280 23.081800
251  2 -0.4784  9.311930 17.922800 10.844100
252  2 -0.4789  9.310440 17.922100 23.081300
253  2 -0.4783 13.447100  6.617250 10.846800
254  2 -0.4782 13.449300  6.617250 23.082300
255  2 -0.4782 13.448800 17.923300 10.844000
256  2 -0.4783 13.448000 17.920200 23.082000
257  2 -0.7089  1.039080 10.049700  0.925533
258  2 -0.7085  1.039980 10.048600 13.163800
259  2 -0.7090  1.038860 21.352300  0.925487
260  2 -0.7086  1.039340 21.351800 13.163000
261  2 -0.7089  5.173750 10.048300  0.923842
262  2 -0.7086  5.176410 10.047300 13.162800
263  2 -0.7080  5.175560 21.351700  0.925896
264  2 -0.7085  5.175440 21.351400 13.162700
265  2 -0.7093  9.311640 10.050100  0.925644
266  2 -0.7087  9.311550 10.048100 13.161800
267  2 -0.7090  9.311620 21.351100  0.926727
268  2 -0.7087  9.312640 21.352500 13.162900
269  2 -0.7092 13.450000 10.047300  0.925016
270  2 -0.7086 13.447300 10.048000 13.163200
271  2 -0.7079 13.446600 21.351900  0.926426
272  2 -0.7090 13.447700 21.353100 13.162000
273  2 -0.7087  3.108720  1.869520 11.313700
274  2 -0.7089  3.106530  1.869330 23.548300
275  2 -0.7094  3.107180 13.172800 11.313700
276  2 -0.7091  3.107570 13.174600 23.547200
277  2 -0.7091  7.242910  1.868770 11.312400
278  2 -0.7094  7.243440  1.869450 23.547800
279  2 -0.7087  7.243470 13.172600 11.312000
280  2 -0.7082  7.242900 13.173400 23.546200
281  2 -0.7090 11.380600  1.869600 11.312600
282  2 -0.7086 11.379400  1.868980 23.548900
283  2 -0.7087 11.378400 13.172000 11.311500
284  2 -0.7088 11.380600 13.173600 23.548400
285  2 -0.7089 15.514700  1.868740 11.313200
286  2 -0.7096 15.516700  1.868260 23.547300
287  2 -0.7091 15.515700 13.172400 11.312800
288  2 -0.7088 15.516100 13.171600 23.546400
289  2 -0.7091  3.107670  4.395750  5.193290
290  2 -0.7085  3.107460  4.396960 17.427200
291  2 -0.7088  3.107150 15.698900  5.191210
292  2 -0.7085  3.108080 15.700600 17.429000
293  2 -0.7085  7.242350  4.396550  5.191590
294  2 -0.7084  7.243570  4.395950 17.428300
295  2 -0.7088  7.243890 15.700600  5.191790
296  2 -0.7091  7.243830 15.701100 17.428600
297  2 -0.7088 11.381800  4.396720  5.191770
298  2 -0.7086 11.379900  4.395800 17.426500
299  2 -0.7078 11.379800 15.701000  5.191530
300  2 -0.7087 11.379800 15.700300 17.428000
301  2 -0.7090 15.515400  4.396420  5.192930
302  2 -0.7082 15.515900  4.397260 17.424600
303  2 -0.7093 15.516700 15.701200  5.191870
304  2 -0.7092 15.515600 15.700000 17.428100
305  2 -0.7091  1.038560  7.520580  7.045080
306  2 -0.7099  1.038820  7.518950 19.273600
307  2 -0.7090  1.040220 18.825600  7.042730
308  2 -0.7090  1.038270 18.824000 19.276900
309  2 -0.7090  5.173920  7.520430  7.041220
310  2 -0.7085  5.175900  7.521380 19.277300
311  2 -0.7088  5.174810 18.825300  7.042830
312  2 -0.7086  5.175300 18.824700 19.278600
313  2 -0.7088  9.310750  7.520670  7.044010
314  2 -0.7092  9.311480  7.520000 19.278100
315  2 -0.7089  9.312200 18.823800  7.040210
316  2 -0.7087  9.312430 18.825000 19.278500
317  2 -0.7090 13.447300  7.519500  7.042540
318  2 -0.7092 13.449200  7.521530 19.275700
319  2 -0.7091 13.448400 18.824100  7.041320
320  2 -0.7088 13.447100 18.824500 19.278300

