Generated by pymatgen.io.lammps.data.LammpsData

504  atoms

  2  atom types

0.000000 17.774667  xlo xhi
0.000000 21.986255  ylo yhi
0.000000 41.650458  zlo zhi

Masses

1  208.9804
2   78.9600

Atoms

1    1  0.5685 12.167800 12.711200  8.294750
2    1  0.5847 -0.081398  6.156290  8.015100
3    1  0.8782 14.679000  8.994700 12.331300
4    1  0.7235 14.427400 12.619400 12.340400
5    1  0.1885  0.922926 11.632700  7.395890
6    1  0.7066  3.385010 21.455900  7.201140
7    1  0.8392 16.871000 18.291400  3.904940
8    1  0.3002  2.058850  5.507040 12.048400
9    1  0.4175  0.325557  9.191660 11.276200
10   1  0.3297  5.437430 15.242500 12.859500
11   1  0.4288 11.473300 15.662300  9.575830
12   1  0.7778 11.147100 16.402900 14.650000
13   1  0.2622  1.261030  2.700120 13.509700
14   1  0.4637  4.114430  2.872520 14.511800
15   1  0.3769  8.396700  6.873890 10.595300
16   1  0.5830  9.885520  9.203590 12.991600
17   1  0.7634 12.009900 17.600400  6.975120
18   1  0.4565 17.470400  0.983742 11.042700
19   1  0.7530  9.058430 18.862000 10.273700
20   1  0.6337 12.487300  7.140550 13.899300
21   1  0.6198  9.946670  8.617190 17.063900
22   1  0.1400  3.643340  8.241000 10.737700
23   1  0.5555 11.260600  1.937570 12.386200
24   1  0.7615 14.270800  0.991033 12.311700
25   1  0.1929  2.981630 11.591200  0.914636
26   1  0.7462  1.790560 19.329100  0.730842
27   1  0.0826  2.081620  8.899950  2.256490
28   1  0.1679  4.280100  7.589630  0.955534
29   1  0.0501  3.659850 11.959900  5.649140
30   1  0.7718  8.306060 18.160500  5.613760
31   1  0.5525  0.556886  1.264180  0.909715
32   1  0.4643  2.767860  4.630250 41.186700
33   1  0.0549  4.639650 10.528700  2.846010
34   1  0.3604  6.530600  9.340920  5.251360
35   1  0.6765 10.558500 10.932400 38.163000
36   1  0.7453 13.362100 17.060100  2.773120
37   1  0.6567  6.670250  1.702520 41.721100
38   1  0.5084 12.545500  9.611630  2.043890
39   1  0.5640 10.128000 11.799100  4.979990
40   1  0.1859 14.444200  8.886310  6.362490
41   1  0.6103 15.298100 12.172900  2.524860
42   1  0.4983 16.570700 14.400400 39.329700
43   1  0.5968  9.725730  0.181953  1.535810
44   1  0.5405 11.776000  3.478510  3.038100
45   1  0.7217 15.203700  8.120180  0.800714
46   1  0.6232 16.308300 15.834500  1.002240
47   1  0.6014 14.978400  1.938760  2.080020
48   1  0.6288 16.101200  3.939040  0.078911
49   1  0.7720 -0.502244 14.474700  9.662490
50   1  0.1716  4.345480 12.640900 14.320500
51   1  0.0756  2.727040 10.784800  9.898770
52   1  0.1075  4.588850  9.522840  7.945450
53   1  0.2391  6.259050  9.998930 10.415800
54   1  0.5535  0.630374  1.486450  3.960360
55   1  0.3493  6.025860  5.555440  7.013090
56   1  0.7957 14.034200  5.458970 10.411500
57   1  0.4121 10.535000  7.390110  3.518870
58   1  0.7880  7.736510 14.080700  7.886920
59   1  0.7229  8.314950 14.836500  4.330340
60   1  0.4573  2.166380 16.725700  3.801040
61   1  0.5331  8.630210  2.981990 10.350900
62   1  0.7280 12.284700 21.750500  9.645760
63   1  0.5498 10.905900  2.962650  7.628010
64   1  0.1063  0.305900 10.807900  4.480160
65   1  0.2979  0.254080 11.735100  1.124960
66   1  0.2633  5.005090 13.568500  3.046570
67   1  0.5435  5.752240 16.356400  1.704990
68   1  0.7890 12.247600 21.177500  4.104950
69   1  0.3296  1.888400 14.626500  6.247050
70   1  0.1016 13.596400  7.035920  3.779490
71   1  0.8105  7.353130 21.899000  8.568330
72   1  0.7029 15.209100 18.723500  9.200770
73   1  0.0567  4.526480  5.515130  2.709570
74   1  0.5636  7.612550 17.370000 14.271800
75   1  0.3987  3.997340  2.803420  3.890320
76   1  0.7393  9.240210  1.456460  5.029800
77   1  0.0747  1.923040  8.825390  6.283950
78   1  0.2201 10.191400  6.036720  8.113310
79   1  0.7732  5.640420 17.422400  8.380320
80   1  0.2731  8.565390  7.384400  5.801600
81   1  0.1326  1.785090  6.637400  4.372360
82   1 -0.0040  4.742400  7.452630  4.891130
83   1  0.7999  8.886430 14.094700 41.028300
84   1  0.3679 13.116100 11.142400  5.468120
85   1  0.5534  2.210100  4.106080  6.398270
86   1  0.5031  7.536640  4.703780  4.244790
87   1  0.2192 13.459200  5.797090  6.830860
88   1  0.2578 16.986000  9.258830  7.054160
89   1  0.7543 17.005000 17.697500 12.525700
90   1  0.4377  1.797600  2.980290 10.061300
91   1  0.7848  2.104010 16.941000  9.865470
92   1  0.8363 15.548600 22.105200  6.130280
93   1 -0.0636  2.093780 13.071600  3.774580
94   1  0.1065 11.352700  7.917290  6.308290
95   1  0.6267 13.132500 14.452400  5.343350
96   1  0.3292 15.955300  5.948190  4.630740
97   1  0.3737  0.898921 12.237700 20.169300
98   1  0.6453  2.501040 14.118900 26.519500
99   1  0.6514  3.286640  5.774200 26.865800
100  1  0.8872  6.524330  6.301840 24.638900
101  1  0.4846  1.833070 14.780300 29.325800
102  1  0.1824 -0.280206 19.676100 20.076300
103  1  0.4733 15.293800 21.012600 27.994500
104  1  0.4918  1.157320  4.659380 20.545500
105  1  0.5964  6.338740  0.436466 29.401000
106  1  0.6969 12.267400  7.424880 24.572900
107  1  0.5005 15.256700 10.798300 25.099000
108  1  0.6663 10.042700 10.336300 25.364900
109  1  0.7904  4.567360 19.429700 23.809700
110  1  0.7498  6.286590  3.425860 27.648700
111  1  0.5215  9.808620  8.127120 28.186000
112  1  0.5072 13.558600 12.596400 26.903600
113  1  0.5038 16.516400 15.152900 22.485900
114  1  0.3961 17.161400 12.328100 26.574800
115  1  0.8242 12.790100 18.090100 27.143000
116  1  0.5026  9.984900  1.130700 26.164200
117  1  0.4810 16.989000  7.580400 29.128900
118  1  0.4915  0.553962  7.483610 26.683100
119  1  0.6843 16.327700  0.803848 24.973100
120  1  0.6203  2.054030  3.330800 24.270400
121  1  0.3982  2.400550 21.118600 11.740200
122  1  0.1303  4.642830 20.767900 16.285400
123  1  0.3842 16.453300  6.530580 16.174800
124  1  0.0826  1.418140  6.003320 14.892400
125  1  0.7467  9.893300 14.683700 22.253200
126  1  0.5802  9.182970 20.785700 19.209800
127  1  0.3681 16.567900  1.987350 16.805700
128  1  0.6319 15.467200 10.179500 16.013900
129  1  0.2224  2.557350 10.284600 18.086400
130  1  0.2711  3.906690 12.531300 19.417200
131  1  0.8096 13.801500 17.553500 16.678100
132  1  0.5858 10.410900 20.641200 13.228600
133  1  0.5949  6.125390  0.485416 11.747200
134  1  0.4650 10.540200  4.309610 14.896200
135  1  0.1573  2.632410 10.329700 13.213700
136  1  0.6950 12.637200 12.337500 16.077300
137  1  0.2477  0.318054 16.099800 17.410700
138  1  0.2278  0.707560 14.445700 14.734900
139  1  0.7136 12.189800 18.223600 21.213800
140  1  0.4347  7.895840 21.414600 15.269600
141  1  0.6325  9.633660 12.237300 18.245000
142  1  0.2532 17.139400 13.083600 17.336200
143  1  0.3354  0.320140  1.061280 19.108900
144  1  0.4652 14.102200  4.420900 15.145800
145  1  0.7028  3.727300 14.791300 22.124700
146  1  0.6523  6.250350  8.074220 18.136000
147  1  0.1664  0.750134  4.611980 17.257300
148  1  0.5032  5.937850 10.539300 20.288500
149  1  0.6581  6.602220 14.938000 18.636500
150  1  0.5202 11.604400  2.802600 19.949200
151  1  0.5318 15.542700 21.413500 21.262000
152  1  0.3574 12.837800  2.452320 17.401100
153  1  0.6418 10.852700  7.308310 21.737600
154  1  0.6742  8.408670  9.997960 22.062400
155  1  0.6189 12.861600 16.930800 11.463000
156  1  0.3993 11.713400 21.537800 24.137700
157  1  0.4620  9.495470  2.469520 16.817900
158  1  0.7827  3.790150  8.038490 22.373400
159  1  0.1588  5.003310  1.170210 18.114300
160  1  0.7160  9.512670 13.184900 11.957000
161  1  0.2491  2.308650 18.566200 15.869700
162  1  0.7532  4.655410  0.903257 25.073500
163  1  0.6575 13.938500 21.301400 16.929100
164  1  0.6802 12.493200  2.777460 23.708800
165  1  0.9169 14.339200 11.429200 20.534700
166  1  0.2662  2.065930 12.936300 12.272600
167  1  0.0393  1.874660 12.045400 15.930900
168  1  0.2415  6.357680 20.252000 18.632500
169  1  0.1906  1.009820 16.780900 20.618900
170  1  0.4639  5.129560  3.973710 21.193300
171  1  0.7552 16.367300  7.336030 23.442900
172  1  0.2750  5.915040 14.367000 15.726100
173  1  0.6539 16.433700  3.913050 22.264000
174  1  0.3887  3.795560 19.287200 19.768700
175  1  0.5995  1.233550 21.889600 22.383600
176  1  0.6889 15.372300  5.146770 26.818900
177  1  0.6558  5.699770 10.670400 26.009400
178  1  0.3360  5.426880  1.003380 21.259800
179  1  0.4045  0.263359 18.222300 23.046900
180  1  0.4745  6.533760  3.544480 18.349900
181  1  0.7597  9.079500 17.238900 24.951000
182  1  0.5802  6.386960  7.984430 13.691400
183  1  0.7315  8.830950  4.162430 21.210200
184  1  0.7454 12.926100 15.177500 23.597200
185  1  0.7079 10.348500 16.154400 19.121700
186  1  0.3065  1.770520 21.646200 14.439100
187  1  0.5152  9.901080  0.825764 22.491700
188  1  0.5920 14.082200  5.357510 20.173600
189  1  0.7567  2.914180 11.260900 24.140000
190  1  0.2970  1.484860  7.334780 17.906100
191  1  0.3047  3.494680  5.909230 16.771600
192  1  0.0676  3.043080 15.176900 15.745400
193  1  0.6297 16.121800 11.381400 38.078300
194  1  0.6788  5.028080 19.911800  2.666340
195  1  0.8239 -0.139883  5.897030 39.215400
196  1  0.6137  3.169980 15.597900 40.292600
197  1  0.2964  1.715090 14.166800  1.123640
198  1  0.6774 10.220300 18.044400 39.955400
199  1  0.7294  2.549160 21.067900 39.227500
200  1  0.3183  2.574160 10.958200 37.251800
201  1  0.5352  5.826160  5.393500 40.753000
202  1  0.5767  5.847530 10.495200 41.437800
203  1  0.6867 14.442000 18.409600 39.752400
204  1  0.7062 10.219200 18.422500  1.924560
205  1  0.7182  7.182530  4.338000 37.593900
206  1  0.5640 12.268400  4.973610 40.713600
207  1  0.7956  9.471860  6.817030 40.868000
208  1  0.1113 12.834300  7.649250 33.183000
209  1  0.6900 12.137000 14.405700 38.148300
210  1  0.6212 16.048700  0.956372 39.590100
211  1  0.6371  8.724940 20.888500 37.704600
212  1  0.7319 10.246700  7.329510 37.032300
213  1  0.5230 11.432500 13.094900 34.422200
214  1  0.5788 14.376900 12.912500 35.101900
215  1  0.6376 10.969500  0.718446 40.059100
216  1  0.3854  1.709840  4.650350 36.595900
217  1  0.6727 14.806300 16.951200 30.108500
218  1  0.7839  1.008230 17.505000 27.368100
219  1  0.1477 15.594700  8.065700 31.921900
220  1  0.6392  5.642530  8.969920 28.858200
221  1  0.3812  2.371900 12.522800 33.279500
222  1  0.6992  7.485440 16.036600 29.096400
223  1  0.5715  2.219650 21.468800 34.657700
224  1  0.6985 15.887500  1.267060 31.326500
225  1  0.6839  3.081990  6.402420 31.557700
226  1  0.3567  5.770970 12.199600 32.588500
227  1  0.7992  7.117930 13.924600 26.340600
228  1  0.7003  9.471550 18.536200 29.304100
229  1  0.6240  6.811990 20.604800 26.878400
230  1  0.4278  7.931980  6.699470 29.869000
231  1  0.1617  9.270940  9.613980 30.887900
232  1  0.5135  7.902040 11.646000 29.657500
233  1  0.2876 13.890300 11.720800 29.927500
234  1  0.3788 15.828400 12.596400 31.956400
235  1  0.4896 11.875000 21.613800 27.992400
236  1  0.4569 14.529700  2.628090 36.329300
237  1  0.5243 13.827100  9.209840 28.036300
238  1  0.3503 16.086300 13.879700 29.033500
239  1  0.6763 13.111200 19.850900 31.621000
240  1  0.7175 11.676500  3.464110 27.949800
241  1  0.5334  6.495970 15.836000 38.086100
242  1  0.3361  0.602691  2.253330 33.792200
243  1  0.4097  1.075070  5.107800 29.045100
244  1  0.1845  4.536660 13.471500 35.676400
245  1  0.5450  8.155820 12.809400 37.762800
246  1  0.7623  9.553150 17.215900 35.052200
247  1  0.5543  7.373610 14.690500 31.812900
248  1  0.3358  3.576790  3.374470 33.938300
249  1  0.4634  0.978567  9.455640 31.314300
250  1  0.4010  7.102830  8.046170 32.580800
251  1  0.2092 15.031600  8.062030 34.872700
252  1  0.1433 13.975800 10.596500 32.845400
253  1  0.6644  9.116000  1.698260 35.691900
254  1  0.1924 10.195000  6.849530 32.046600
255  1  0.7037 13.694300  9.241120 37.837100
256  1  0.1011 12.137200  9.315650 30.842300
257  1  0.3061 13.289600  6.785020 30.430200
258  1  0.6119 12.447800  2.973750 31.790500
259  1  0.6005 12.690400 22.173100 35.000900
260  1  0.4787 14.603300  6.111580 37.034300
261  1  0.0734  4.030930 10.671400 34.983300
262  1  0.4344  4.111620  2.784960 30.954500
263  1  0.3840 17.456900  6.066700 35.720200
264  1  0.3941  2.078990  1.762230 36.922500
265  1  0.2635  0.594910 12.268500 30.239800
266  1  0.7912 -0.040914 17.301400 36.382800
267  1  0.4872  3.332150 11.338500 29.586300
268  1  0.3533  4.401490 13.567900 38.571400
269  1  0.5265  5.750940 19.099800 40.518000
270  1  0.8118  3.002080 16.972600 32.486500
271  1  0.7780  3.270460 20.449300 30.456500
272  1  0.6274  6.915140  4.944010 34.386400
273  1  0.3790  9.378460 10.492200 33.810200
274  1  0.6776 11.797200 14.575000 29.739300
275  1  0.5081 10.136800 15.702700 31.926800
276  1  0.6822 15.910200 16.003300 33.722700
277  1  0.2162  6.733790 11.200500 35.660100
278  1  0.7884  5.460420 18.915400 36.084300
279  1  0.5488  9.321220  3.804570 31.644600
280  1  0.5101  5.477050  8.835330 37.189900
281  1  0.5214  1.261900 13.636300 36.824000
282  1  0.5372 15.760600 21.023600 36.436400
283  1  0.7946  7.842770 19.848900 32.600400
284  1  0.5394 16.963900  2.027470 27.913700
285  1  0.4207  0.592260  9.321960 35.404000
286  1  0.4026 14.549100  4.999500 33.287000
287  1  0.5850 16.965200 19.822900 31.258200
288  1  0.5161  3.705780  7.047760 34.967500
289  2 -0.7517 16.509000 13.640600 36.334000
290  2 -0.6882 17.064700  3.479750  6.400320
291  2 -0.8281 -0.408998  3.738620  2.584470
292  2 -0.5779 12.638900 15.718000 35.768000
293  2 -0.5598  2.985720 18.385500 39.083600
294  2 -0.6506  3.042210  0.372437  3.820000
295  2 -0.7876  0.488533  2.128300 39.952600
296  2 -0.6126  0.086740  5.882280  0.230773
297  2 -0.8728  1.823560 16.808000  0.847929
298  2 -0.3553  8.884730 12.273100  1.232300
299  2 -0.5099 10.630700 15.391500  2.513590
300  2 -0.6848  7.805020 16.812100 41.336700
301  2 -0.6923  3.786770 21.240300  0.389960
302  2 -0.7267  4.131320  5.198420 37.048800
303  2 -0.6658 11.380000  8.907450 39.428000
304  2 -0.5814  7.593110  7.889540  0.590425
305  2 -0.4105 11.578800 12.697800 40.171600
306  2 -0.5357 14.611500 18.600600 36.731400
307  2 -0.8298  9.391450 20.753100 40.770000
308  2 -0.7579 10.743500  5.707980  1.158350
309  2 -0.8781 12.146000  9.261920 35.653800
310  2 -0.3482 13.818400 10.986200 41.608100
311  2 -0.6449  9.114540  2.940720 39.426700
312  2 -0.7232 16.309000  8.019910 37.603400
313  2 -0.5475  4.610990 18.422900  5.612100
314  2 -0.3844 -0.016680 20.331300  6.553150
315  2 -0.6623 14.080800 15.388800 41.622800
316  2 -0.5493  1.823760 19.549800  3.641450
317  2 -0.8390  5.065470 14.009100  0.064772
318  2 -0.5432 15.671600 20.778800  4.004830
319  2 -0.7745 13.273000  2.432490 -0.115133
320  2 -0.6054  7.503470  4.357050  1.387870
321  2 -0.6412  4.767720  2.533080 40.072500
322  2 -0.6172  7.245340 12.384900  5.787350
323  2 -0.6701 11.646200 18.570800  4.234820
324  2 -0.6853  7.478690 18.214600  2.505070
325  2 -0.5622 10.035800 22.046000  7.258500
326  2 -0.6012  7.064570  1.362900  3.260960
327  2 -0.6191  8.607250  9.828210  3.713380
328  2 -0.6144 12.731600 12.576000  2.930510
329  2 -0.5932 15.364900 18.229300  1.669580
330  2 -0.5106  4.358400  3.244700  7.699950
331  2 -0.7530 13.649400  2.092360  4.517850
332  2 -0.7230 11.868700  4.808960 12.765800
333  2 -0.9799 15.470400  9.688020  3.254380
334  2 -0.7058  3.825020 14.576800  9.125880
335  2 -0.6598  9.493550 21.069500  3.965240
336  2 -0.6277 14.913000  7.009540 40.356100
337  2 -0.6301  4.079780  4.488580 10.889600
338  2 -0.6041  1.145250 20.387300  9.441440
339  2 -0.8055 17.185100  9.852490 13.861800
340  2 -0.4896 13.014400 10.786100 10.448400
341  2 -0.7016  7.473750 19.288800  8.093150
342  2 -0.8117 11.669200 18.820800  9.419760
343  2 -0.5707  0.029560 16.503400  8.083550
344  2 -0.5052  6.388540  5.405350 15.864000
345  2 -0.8916  2.411670  6.392680  7.758830
346  2 -0.5963  4.122010 18.134800 11.208500
347  2 -0.7616  6.845790 15.836900  6.169470
348  2 -0.7385 16.576000 15.744700  3.905250
349  2 -0.8658  9.190380  0.423529 10.846100
350  2 -0.9683  9.992720  4.744600  5.206560
351  2 -0.7608  8.656630  6.629520 13.165200
352  2 -0.8022 10.318600 15.754700  6.053740
353  2 -0.6716 14.137100 16.212500  7.118400
354  2 -0.6961 14.738400 12.584500  6.883230
355  2 -0.7165 12.371300  2.417200 10.021200
356  2 -0.6711 15.484500  6.734360 13.401900
357  2 -0.6098  8.876660 10.068900  7.816930
358  2 -0.6555  9.703140 12.681900  9.343580
359  2 -0.5264 13.456800 20.591000  6.747830
360  2 -0.7824 13.353800 10.388400 13.980800
361  2 -0.6328  7.071660 11.784600 17.323600
362  2 -0.6643  6.596040 19.588200 12.822800
363  2 -0.7548 15.875000  7.414110  9.274090
364  2 -0.6652 16.748000 12.240700 10.631200
365  2 -0.5739  9.690090 13.778800 14.929300
366  2 -0.7159 11.985200 15.292500 21.002000
367  2 -0.7840  1.130970 15.670800 12.035600
368  2 -1.0421  1.825680  2.055190 15.883400
369  2 -0.7505  4.934300  9.412570 15.502200
370  2 -0.7234  8.472620  8.860000 19.191300
371  2 -0.7148 12.417300 14.650200 13.462800
372  2 -0.7523  9.868910 17.975200 12.959900
373  2 -0.6959  4.550530  0.390436  9.761110
374  2 -0.6612  7.786160  2.585680  7.565720
375  2 -0.6381  9.183660  5.181000 18.477000
376  2 -0.5990 12.519700  7.452550 10.953100
377  2 -0.5355 15.974500 21.373600 13.948200
378  2 -0.6099 14.534800 18.914600 11.870400
379  2 -0.5763 15.441600  0.237724  9.494230
380  2 -0.7150 13.853600  7.292730 16.834300
381  2 -0.8433 15.206300  2.729900 19.603600
382  2 -0.5889 14.494800 12.549900 18.108900
383  2 -0.6406 15.538500  3.191710 11.690300
384  2 -0.8164 13.203900  1.789480 14.705500
385  2 -0.6405 15.615500 15.705900 11.741200
386  2 -0.4154  7.800340 16.876000 20.784500
387  2 -0.6537 14.026400  9.164620 23.113700
388  2 -0.4825 12.245800 10.198000 18.472300
389  2 -0.5805  8.690690 11.962500 23.837000
390  2 -0.6517  8.622570 15.717300 10.662800
391  2 -0.7268 17.251500 18.008300 15.977100
392  2 -0.5111 16.753700  7.185300 20.665600
393  2 -0.4974 16.516900 10.370200 19.297000
394  2 -0.4678 11.715200 18.553400 18.080800
395  2 -0.4794  7.743830 15.431200 23.896700
396  2 -0.4542 13.276900 19.483900 15.022800
397  2 -0.6954  8.275320 17.757400 17.410400
398  2 -0.7908  6.696930  1.940810 15.341600
399  2 -0.8432  3.327510  6.807480 19.991300
400  2 -0.5829  6.694180 13.552100 20.716200
401  2 -0.5456 10.890500 11.884700 21.343300
402  2 -1.0016  2.793230 19.951300 21.838200
403  2 -0.6345 12.588300 21.611500 19.921100
404  2 -0.5943 10.838600 21.249900 16.420600
405  2 -0.6064  8.221710 11.150600 13.722200
406  2 -0.5850 12.348200 15.156800 17.141900
407  2 -0.9018  8.948200  1.716280 19.747000
408  2 -0.7403 15.313700  1.628300 22.759100
409  2 -0.7848  1.573490 13.528500 22.980900
410  2 -0.4974  3.297650 17.181200 24.922800
411  2 -0.6130  1.438420  7.210950 23.846300
412  2 -0.5133  1.530710  9.794050 21.688600
413  2 -0.8317  2.543800 11.430300 26.809500
414  2 -0.5524  9.171750 19.317400 22.649400
415  2 -0.6358 15.304500 20.205100 23.884200
416  2 -0.9611  1.545680  2.285580 21.538100
417  2 -0.6928  6.807470  5.828480 21.445500
418  2 -0.5336  9.187480 13.258400 28.089300
419  2 -0.4363 11.501100 14.408200 25.727200
420  2 -0.5646  8.053780  2.462780 23.394100
421  2 -0.8777  4.136600 15.649800 19.036800
422  2 -0.7792  7.359640  1.255980 26.509000
423  2 -0.5060 11.011200  4.010510 25.199600
424  2 -0.6824 14.850100 12.943900 22.828400
425  2 -0.5557 13.707100 15.396200 27.500800
426  2 -0.5341  1.887100 21.966100 25.170700
427  2 -0.6530  6.327250 21.470300 23.552500
428  2 -0.6836  5.241950  5.696040 28.921100
429  2 -0.8062 11.681500  4.980070 21.565500
430  2 -0.6204 14.049600  5.327300 23.860200
431  2 -0.6223 14.398000 17.212100 20.060700
432  2 -0.8074 13.631900  1.686780 26.321000
433  2 -0.7722  0.132416 15.086300 26.262600
434  2 -0.7544  0.640773  0.019607 31.280100
435  2 -0.5712  5.116130 13.568600 24.740100
436  2 -0.7207  5.515520  9.915510 23.176400
437  2 -0.5410  6.254660 17.633800 26.928300
438  2 -0.6418  9.247710 21.450800 29.882700
439  2 -0.6711  4.790060  4.054910 25.045500
440  2 -0.6335  2.513080  2.742370 27.677900
441  2 -0.5594  3.961240 21.710300 28.090400
442  2 -0.6058  4.405320  7.710610 25.523300
443  2 -0.4951 10.349500 15.945800 27.907500
444  2 -0.6148 12.543200 17.845600 24.232200
445  2 -0.5981  7.731270  2.271630 33.517100
446  2 -0.4338  8.039170  5.162090 27.139700
447  2 -0.6425  8.990020  8.099800 24.179000
448  2 -0.8040 11.543800 11.023800 28.019000
449  2 -0.6630 15.415400 18.190400 27.733600
450  2 -0.4449  5.284450 18.755800 33.445200
451  2 -0.7950 10.076800 19.408900 26.781000
452  2 -0.6117 12.256200  6.781000 27.498800
453  2 -0.9388  1.120440  6.608320 33.094200
454  2 -0.8199 15.357700  8.085360 26.288400
455  2 -0.8103 17.257000 16.247900 30.409600
456  2 -0.8332 17.433500  3.737770 25.828400
457  2 -1.0361 16.397300 10.170000 29.120900
458  2 -0.8012  7.463800 17.360600 31.233200
459  2 -0.6278  5.397870 21.822100 31.898000
460  2 -0.7630  6.090390 13.757000 29.020100
461  2 -0.4736  3.563680 17.592400 29.260800
462  2 -0.5869  6.598080 16.424900 35.037100
463  2 -0.8524 17.350900 11.764200 34.033200
464  2 -0.4827  1.184220 19.863500 28.462300
465  2 -0.9339  5.074620  5.271120 32.639200
466  2 -0.7907  8.488190  8.008630 35.151400
467  2 -0.7468  3.917200 14.063300 31.607900
468  2 -0.8669 10.285300 12.546800 31.701900
469  2 -0.7882 13.502400  0.938627 29.816500
470  2 -0.8574 15.769300  2.775380 33.702900
471  2 -0.8628 10.349900  5.132880 29.738200
472  2 -0.7027  7.366340  8.563870 27.016100
473  2 -0.7995 11.968700 18.089800 29.902200
474  2 -0.8210 13.884900 14.852200 31.925600
475  2 -0.5383  7.226140 21.264700 35.345800
476  2 -0.4388 10.905900  0.392648 32.660100
477  2 -0.8028 15.446900  4.990250 29.870000
478  2 -0.7397  2.341860  8.275950 29.375900
479  2 -0.5715  0.653211 15.407500 34.019200
480  2 -0.7405 15.098500 21.360600 33.005300
481  2 -0.3737 17.122900  9.636740 40.997200
482  2 -0.8328  8.703090 13.604000 35.504700
483  2 -0.9801  5.435420  9.737170 31.356700
484  2 -0.8856  6.425860 11.212600 38.902500
485  2 -0.8511  1.560320 13.174500 39.958100
486  2 -0.5631  1.408950 18.960800 33.473300
487  2 -0.5045 16.713900 20.872300 41.177300
488  2 -0.6091  1.001510 20.160000 36.629300
489  2 -0.7011  2.782980  8.173500 37.259800
490  2 -0.6322  7.500010  6.884010 38.403700
491  2 -0.7116  9.305470 15.356500 38.790400
492  2 -0.5414 12.905700 20.532200  1.551170
493  2 -0.4580 11.281700 19.838600 36.255600
494  2 -0.6339  4.086070 21.992500 37.070700
495  2 -0.7044 11.826500  3.848410 34.477600
496  2 -0.2701  1.215610  8.411510 39.585400
497  2 -0.4748 17.487500 17.920000 39.127900
498  2 -0.5691  2.568990 16.135100 36.485800
499  2 -0.6834  8.018780 18.443100 37.666000
500  2 -0.5948 13.065600 21.255600 38.988800
501  2 -0.6379  9.541390  4.451580 36.513900
502  2 -0.7540 13.319600 11.917300 37.599900
503  2 -0.5331 11.043600 18.577900 33.324700
504  2 -0.9112 16.189500  4.080570 37.976700

