Generated by pymatgen.io.lammps.data.LammpsData

360  atoms

  2  atom types

0.00000000 16.76546610  xlo xhi
0.00000000 21.77897933  ylo yhi
0.00000000 29.92868720  zlo zhi

Masses

1  208.9804
2   78.9600

Atoms

1    1  1.00000  2.09568326 13.30937626 21.90086555
2    1  1.00000  4.19136653 16.93920614 21.90086555
3    1  1.00000  2.09568326  6.04971648 21.90086555
4    1  1.00000  4.19136653  9.67954637 21.90086555
5    1  1.00000  6.28704979 13.30937626 21.90086555
6    1  1.00000  8.38273305 16.93920614 21.90086555
7    1  1.00000  2.09568326 20.56903603 21.90086555
8    1  1.00000  4.19136653  2.41988659 21.90086555
9    1  1.00000  6.28704979  6.04971648 21.90086555
10   1  1.00000  8.38273305  9.67954637 21.90086555
11   1  1.00000 10.47841631 13.30937626 21.90086555
12   1  1.00000 12.57409958 16.93920614 21.90086555
13   1  1.00000  6.28704979 20.56903603 21.90086555
14   1  1.00000  8.38273305  2.41988659 21.90086555
15   1  1.00000 10.47841631  6.04971648 21.90086555
16   1  1.00000 12.57409958  9.67954637 21.90086555
17   1  1.00000 14.66978284 13.30937626 21.90086555
18   1  1.00000  0.00000000 16.93920614 21.90086555
19   1  1.00000 10.47841631 20.56903603 21.90086555
20   1  1.00000 12.57409958  2.41988659 21.90086555
21   1  1.00000 14.66978284  6.04971648 21.90086555
22   1  1.00000  0.00000000  9.67954637 21.90086555
23   1  1.00000 14.66978284 20.56903603 21.90086555
24   1  1.00000  0.00000000  2.41988659 21.90086555
25   1  1.00000  2.09568326 13.30937626 27.98027978
26   1  1.00000  4.19136653 16.93920614 27.98027978
27   1  1.00000  2.09568326  6.04971648 27.98027978
28   1  1.00000  4.19136653  9.67954637 27.98027978
29   1  1.00000  6.28704979 13.30937626 27.98027978
30   1  1.00000  8.38273305 16.93920614 27.98027978
31   1  1.00000  2.09568326 20.56903603 27.98027978
32   1  1.00000  4.19136653  2.41988659 27.98027978
33   1  1.00000  6.28704979  6.04971648 27.98027978
34   1  1.00000  8.38273305  9.67954637 27.98027978
35   1  1.00000 10.47841631 13.30937626 27.98027978
36   1  1.00000 12.57409958 16.93920614 27.98027978
37   1  1.00000  6.28704979 20.56903603 27.98027978
38   1  1.00000  8.38273305  2.41988659 27.98027978
39   1  1.00000 10.47841631  6.04971648 27.98027978
40   1  1.00000 12.57409958  9.67954637 27.98027978
41   1  1.00000 14.66978284 13.30937626 27.98027978
42   1  1.00000  0.00000000 16.93920614 27.98027978
43   1  1.00000 10.47841631 20.56903603 27.98027978
44   1  1.00000 12.57409958  2.41988659 27.98027978
45   1  1.00000 14.66978284  6.04971648 27.98027978
46   1  1.00000  0.00000000  9.67954637 27.98027978
47   1  1.00000 14.66978284 20.56903603 27.98027978
48   1  1.00000  0.00000000  2.41988659 27.98027978
49   1  1.00000  2.09568326 15.72926285  1.94840742
50   1  1.00000  4.19136653 19.35909274  1.94840742
51   1  1.00000  2.09568326  8.46960307  1.94840742
52   1  1.00000  4.19136653 12.09943296  1.94840742
53   1  1.00000  6.28704979 15.72926285  1.94840742
54   1  1.00000  8.38273305 19.35909274  1.94840742
55   1  1.00000  2.09568326  1.20994330  1.94840742
56   1  1.00000  4.19136653  4.83977318  1.94840742
57   1  1.00000  6.28704979  8.46960307  1.94840742
58   1  1.00000  8.38273305 12.09943296  1.94840742
59   1  1.00000 10.47841631 15.72926285  1.94840742
60   1  1.00000 12.57409958 19.35909274  1.94840742
61   1  1.00000  6.28704979  1.20994330  1.94840742
62   1  1.00000  8.38273305  4.83977318  1.94840742
63   1  1.00000 10.47841631  8.46960307  1.94840742
64   1  1.00000 12.57409958 12.09943296  1.94840742
65   1  1.00000 14.66978284 15.72926285  1.94840742
66   1  1.00000  0.00000000 19.35909274  1.94840742
67   1  1.00000 10.47841631  1.20994330  1.94840742
68   1  1.00000 12.57409958  4.83977318  1.94840742
69   1  1.00000 14.66978284  8.46960307  1.94840742
70   1  1.00000  0.00000000 12.09943296  1.94840742
71   1  1.00000 14.66978284  1.20994330  1.94840742
72   1  1.00000  0.00000000  4.83977318  1.94840742
73   1  1.00000  2.09568326 15.72926285  8.02782165
74   1  1.00000  4.19136653 19.35909274  8.02782165
75   1  1.00000  2.09568326  8.46960307  8.02782165
76   1  1.00000  4.19136653 12.09943296  8.02782165
77   1  1.00000  6.28704979 15.72926285  8.02782165
78   1  1.00000  8.38273305 19.35909274  8.02782165
79   1  1.00000  2.09568326  1.20994330  8.02782165
80   1  1.00000  4.19136653  4.83977318  8.02782165
81   1  1.00000  6.28704979  8.46960307  8.02782165
82   1  1.00000  8.38273305 12.09943296  8.02782165
83   1  1.00000 10.47841631 15.72926285  8.02782165
84   1  1.00000 12.57409958 19.35909274  8.02782165
85   1  1.00000  6.28704979  1.20994330  8.02782165
86   1  1.00000  8.38273305  4.83977318  8.02782165
87   1  1.00000 10.47841631  8.46960307  8.02782165
88   1  1.00000 12.57409958 12.09943296  8.02782165
89   1  1.00000 14.66978284 15.72926285  8.02782165
90   1  1.00000  0.00000000 19.35909274  8.02782165
91   1  1.00000 10.47841631  1.20994330  8.02782165
92   1  1.00000 12.57409958  4.83977318  8.02782165
93   1  1.00000 14.66978284  8.46960307  8.02782165
94   1  1.00000  0.00000000 12.09943296  8.02782165
95   1  1.00000 14.66978284  1.20994330  8.02782165
96   1  1.00000  0.00000000  4.83977318  8.02782165
97   1  1.00000  0.00000000 14.51931955 11.92463649
98   1  1.00000  2.09568326 18.14914944 11.92463649
99   1  1.00000  0.00000000  7.25965978 11.92463649
100  1  1.00000  2.09568326 10.88948966 11.92463649
101  1  1.00000  4.19136653 14.51931955 11.92463649
102  1  1.00000  6.28704979 18.14914944 11.92463649
103  1  1.00000  0.00000000  0.00000000 11.92463649
104  1  1.00000  2.09568326  3.62982989 11.92463649
105  1  1.00000  4.19136653  7.25965978 11.92463649
106  1  1.00000  6.28704979 10.88948966 11.92463649
107  1  1.00000  8.38273305 14.51931955 11.92463649
108  1  1.00000 10.47841631 18.14914944 11.92463649
109  1  1.00000  4.19136653  0.00000000 11.92463649
110  1  1.00000  6.28704979  3.62982989 11.92463649
111  1  1.00000  8.38273305  7.25965978 11.92463649
112  1  1.00000 10.47841631 10.88948966 11.92463649
113  1  1.00000 12.57409958 14.51931955 11.92463649
114  1  1.00000 14.66978284 18.14914944 11.92463649
115  1  1.00000  8.38273305  0.00000000 11.92463649
116  1  1.00000 10.47841631  3.62982989 11.92463649
117  1  1.00000 12.57409958  7.25965978 11.92463649
118  1  1.00000 14.66978284 10.88948966 11.92463649
119  1  1.00000 12.57409958 21.77897933 11.92463649
120  1  1.00000 14.66978284  3.62982989 11.92463649
121  1  1.00000  0.00000000 14.51931955 18.00405072
122  1  1.00000  2.09568326 18.14914944 18.00405072
123  1  1.00000  0.00000000  7.25965978 18.00405072
124  1  1.00000  2.09568326 10.88948966 18.00405072
125  1  1.00000  4.19136653 14.51931955 18.00405072
126  1  1.00000  6.28704979 18.14914944 18.00405072
127  1  1.00000  0.00000000  0.00000000 18.00405072
128  1  1.00000  2.09568326  3.62982989 18.00405072
129  1  1.00000  4.19136653  7.25965978 18.00405072
130  1  1.00000  6.28704979 10.88948966 18.00405072
131  1  1.00000  8.38273305 14.51931955 18.00405072
132  1  1.00000 10.47841631 18.14914944 18.00405072
133  1  1.00000  4.19136653  0.00000000 18.00405072
134  1  1.00000  6.28704979  3.62982989 18.00405072
135  1  1.00000  8.38273305  7.25965978 18.00405072
136  1  1.00000 10.47841631 10.88948966 18.00405072
137  1  1.00000 12.57409958 14.51931955 18.00405072
138  1  1.00000 14.66978284 18.14914944 18.00405072
139  1  1.00000  8.38273305  0.00000000 18.00405072
140  1  1.00000 10.47841631  3.62982989 18.00405072
141  1  1.00000 12.57409958  7.25965978 18.00405072
142  1  1.00000 14.66978284 10.88948966 18.00405072
143  1  1.00000 12.57409958 21.77897933 18.00405072
144  1  1.00000 14.66978284  3.62982989 18.00405072
145  2 -0.66700  0.00000000 14.51931955  0.00000000
146  2 -0.66700  2.09568326 18.14914944  0.00000000
147  2 -0.66700  0.00000000  7.25965978  0.00000000
148  2 -0.66700  2.09568326 10.88948966  0.00000000
149  2 -0.66700  4.19136653 14.51931955  0.00000000
150  2 -0.66700  6.28704979 18.14914944  0.00000000
151  2 -0.66700  0.00000000  0.00000000  0.00000000
152  2 -0.66700  2.09568326  3.62982989  0.00000000
153  2 -0.66700  4.19136653  7.25965978  0.00000000
154  2 -0.66700  6.28704979 10.88948966  0.00000000
155  2 -0.66700  8.38273305 14.51931955  0.00000000
156  2 -0.66700 10.47841631 18.14914944  0.00000000
157  2 -0.66700  4.19136653  0.00000000  0.00000000
158  2 -0.66700  6.28704979  3.62982989  0.00000000
159  2 -0.66700  8.38273305  7.25965978  0.00000000
160  2 -0.66700 10.47841631 10.88948966  0.00000000
161  2 -0.66700 12.57409958 14.51931955  0.00000000
162  2 -0.66700 14.66978284 18.14914944  0.00000000
163  2 -0.66700  8.38273305  0.00000000  0.00000000
164  2 -0.66700 10.47841631  3.62982989  0.00000000
165  2 -0.66700 12.57409958  7.25965978  0.00000000
166  2 -0.66700 14.66978284 10.88948966  0.00000000
167  2 -0.66700 12.57409958 21.77897933  0.00000000
168  2 -0.66700 14.66978284  3.62982989  0.00000000
169  2 -0.66700  2.09568326 15.72926285 26.40852489
170  2 -0.66700  4.19136653 19.35909274 26.40852489
171  2 -0.66700  2.09568326  8.46960307 26.40852489
172  2 -0.66700  4.19136653 12.09943296 26.40852489
173  2 -0.66700  6.28704979 15.72926285 26.40852489
174  2 -0.66700  8.38273305 19.35909274 26.40852489
175  2 -0.66700  2.09568326  1.20994330 26.40852489
176  2 -0.66700  4.19136653  4.83977318 26.40852489
177  2 -0.66700  6.28704979  8.46960307 26.40852489
178  2 -0.66700  8.38273305 12.09943296 26.40852489
179  2 -0.66700 10.47841631 15.72926285 26.40852489
180  2 -0.66700 12.57409958 19.35909274 26.40852489
181  2 -0.66700  6.28704979  1.20994330 26.40852489
182  2 -0.66700  8.38273305  4.83977318 26.40852489
183  2 -0.66700 10.47841631  8.46960307 26.40852489
184  2 -0.66700 12.57409958 12.09943296 26.40852489
185  2 -0.66700 14.66978284 15.72926285 26.40852489
186  2 -0.66700  0.00000000 19.35909274 26.40852489
187  2 -0.66700 10.47841631  1.20994330 26.40852489
188  2 -0.66700 12.57409958  4.83977318 26.40852489
189  2 -0.66700 14.66978284  8.46960307 26.40852489
190  2 -0.66700  0.00000000 12.09943296 26.40852489
191  2 -0.66700 14.66978284  1.20994330 26.40852489
192  2 -0.66700  0.00000000  4.83977318 26.40852489
193  2 -0.66700  0.00000000 14.51931955 23.47262044
194  2 -0.66700  2.09568326 18.14914944 23.47262044
195  2 -0.66700  0.00000000  7.25965978 23.47262044
196  2 -0.66700  2.09568326 10.88948966 23.47262044
197  2 -0.66700  4.19136653 14.51931955 23.47262044
198  2 -0.66700  6.28704979 18.14914944 23.47262044
199  2 -0.66700  0.00000000  0.00000000 23.47262044
200  2 -0.66700  2.09568326  3.62982989 23.47262044
201  2 -0.66700  4.19136653  7.25965978 23.47262044
202  2 -0.66700  6.28704979 10.88948966 23.47262044
203  2 -0.66700  8.38273305 14.51931955 23.47262044
204  2 -0.66700 10.47841631 18.14914944 23.47262044
205  2 -0.66700  4.19136653  0.00000000 23.47262044
206  2 -0.66700  6.28704979  3.62982989 23.47262044
207  2 -0.66700  8.38273305  7.25965978 23.47262044
208  2 -0.66700 10.47841631 10.88948966 23.47262044
209  2 -0.66700 12.57409958 14.51931955 23.47262044
210  2 -0.66700 14.66978284 18.14914944 23.47262044
211  2 -0.66700  8.38273305  0.00000000 23.47262044
212  2 -0.66700 10.47841631  3.62982989 23.47262044
213  2 -0.66700 12.57409958  7.25965978 23.47262044
214  2 -0.66700 14.66978284 10.88948966 23.47262044
215  2 -0.66700 12.57409958 21.77897933 23.47262044
216  2 -0.66700 14.66978284  3.62982989 23.47262044
217  2 -0.66700  2.09568326 13.30937626  9.97622907
218  2 -0.66700  4.19136653 16.93920614  9.97622907
219  2 -0.66700  2.09568326  6.04971648  9.97622907
220  2 -0.66700  4.19136653  9.67954637  9.97622907
221  2 -0.66700  6.28704979 13.30937626  9.97622907
222  2 -0.66700  8.38273305 16.93920614  9.97622907
223  2 -0.66700  2.09568326 20.56903603  9.97622907
224  2 -0.66700  4.19136653  2.41988659  9.97622907
225  2 -0.66700  6.28704979  6.04971648  9.97622907
226  2 -0.66700  8.38273305  9.67954637  9.97622907
227  2 -0.66700 10.47841631 13.30937626  9.97622907
228  2 -0.66700 12.57409958 16.93920614  9.97622907
229  2 -0.66700  6.28704979 20.56903603  9.97622907
230  2 -0.66700  8.38273305  2.41988659  9.97622907
231  2 -0.66700 10.47841631  6.04971648  9.97622907
232  2 -0.66700 12.57409958  9.67954637  9.97622907
233  2 -0.66700 14.66978284 13.30937626  9.97622907
234  2 -0.66700  0.00000000 16.93920614  9.97622907
235  2 -0.66700 10.47841631 20.56903603  9.97622907
236  2 -0.66700 12.57409958  2.41988659  9.97622907
237  2 -0.66700 14.66978284  6.04971648  9.97622907
238  2 -0.66700  0.00000000  9.67954637  9.97622907
239  2 -0.66700 14.66978284 20.56903603  9.97622907
240  2 -0.66700  0.00000000  2.41988659  9.97622907
241  2 -0.66700  0.00000000 14.51931955  6.45606676
242  2 -0.66700  2.09568326 18.14914944  6.45606676
243  2 -0.66700  0.00000000  7.25965978  6.45606676
244  2 -0.66700  2.09568326 10.88948966  6.45606676
245  2 -0.66700  4.19136653 14.51931955  6.45606676
246  2 -0.66700  6.28704979 18.14914944  6.45606676
247  2 -0.66700  0.00000000  0.00000000  6.45606676
248  2 -0.66700  2.09568326  3.62982989  6.45606676
249  2 -0.66700  4.19136653  7.25965978  6.45606676
250  2 -0.66700  6.28704979 10.88948966  6.45606676
251  2 -0.66700  8.38273305 14.51931955  6.45606676
252  2 -0.66700 10.47841631 18.14914944  6.45606676
253  2 -0.66700  4.19136653  0.00000000  6.45606676
254  2 -0.66700  6.28704979  3.62982989  6.45606676
255  2 -0.66700  8.38273305  7.25965978  6.45606676
256  2 -0.66700 10.47841631 10.88948966  6.45606676
257  2 -0.66700 12.57409958 14.51931955  6.45606676
258  2 -0.66700 14.66978284 18.14914944  6.45606676
259  2 -0.66700  8.38273305  0.00000000  6.45606676
260  2 -0.66700 10.47841631  3.62982989  6.45606676
261  2 -0.66700 12.57409958  7.25965978  6.45606676
262  2 -0.66700 14.66978284 10.88948966  6.45606676
263  2 -0.66700 12.57409958 21.77897933  6.45606676
264  2 -0.66700 14.66978284  3.62982989  6.45606676
265  2 -0.66700  2.09568326 13.30937626  3.52016231
266  2 -0.66700  4.19136653 16.93920614  3.52016231
267  2 -0.66700  2.09568326  6.04971648  3.52016231
268  2 -0.66700  4.19136653  9.67954637  3.52016231
269  2 -0.66700  6.28704979 13.30937626  3.52016231
270  2 -0.66700  8.38273305 16.93920614  3.52016231
271  2 -0.66700  2.09568326 20.56903603  3.52016231
272  2 -0.66700  4.19136653  2.41988659  3.52016231
273  2 -0.66700  6.28704979  6.04971648  3.52016231
274  2 -0.66700  8.38273305  9.67954637  3.52016231
275  2 -0.66700 10.47841631 13.30937626  3.52016231
276  2 -0.66700 12.57409958 16.93920614  3.52016231
277  2 -0.66700  6.28704979 20.56903603  3.52016231
278  2 -0.66700  8.38273305  2.41988659  3.52016231
279  2 -0.66700 10.47841631  6.04971648  3.52016231
280  2 -0.66700 12.57409958  9.67954637  3.52016231
281  2 -0.66700 14.66978284 13.30937626  3.52016231
282  2 -0.66700  0.00000000 16.93920614  3.52016231
283  2 -0.66700 10.47841631 20.56903603  3.52016231
284  2 -0.66700 12.57409958  2.41988659  3.52016231
285  2 -0.66700 14.66978284  6.04971648  3.52016231
286  2 -0.66700  0.00000000  9.67954637  3.52016231
287  2 -0.66700 14.66978284 20.56903603  3.52016231
288  2 -0.66700  0.00000000  2.41988659  3.52016231
289  2 -0.66700  2.09568326 15.72926285 19.95245813
290  2 -0.66700  4.19136653 19.35909274 19.95245813
291  2 -0.66700  2.09568326  8.46960307 19.95245813
292  2 -0.66700  4.19136653 12.09943296 19.95245813
293  2 -0.66700  6.28704979 15.72926285 19.95245813
294  2 -0.66700  8.38273305 19.35909274 19.95245813
295  2 -0.66700  2.09568326  1.20994330 19.95245813
296  2 -0.66700  4.19136653  4.83977318 19.95245813
297  2 -0.66700  6.28704979  8.46960307 19.95245813
298  2 -0.66700  8.38273305 12.09943296 19.95245813
299  2 -0.66700 10.47841631 15.72926285 19.95245813
300  2 -0.66700 12.57409958 19.35909274 19.95245813
301  2 -0.66700  6.28704979  1.20994330 19.95245813
302  2 -0.66700  8.38273305  4.83977318 19.95245813
303  2 -0.66700 10.47841631  8.46960307 19.95245813
304  2 -0.66700 12.57409958 12.09943296 19.95245813
305  2 -0.66700 14.66978284 15.72926285 19.95245813
306  2 -0.66700  0.00000000 19.35909274 19.95245813
307  2 -0.66700 10.47841631  1.20994330 19.95245813
308  2 -0.66700 12.57409958  4.83977318 19.95245813
309  2 -0.66700 14.66978284  8.46960307 19.95245813
310  2 -0.66700  0.00000000 12.09943296 19.95245813
311  2 -0.66700 14.66978284  1.20994330 19.95245813
312  2 -0.66700  0.00000000  4.83977318 19.95245813
313  2 -0.66700  2.09568326 13.30937626 16.43229583
314  2 -0.66700  4.19136653 16.93920614 16.43229583
315  2 -0.66700  2.09568326  6.04971648 16.43229583
316  2 -0.66700  4.19136653  9.67954637 16.43229583
317  2 -0.66700  6.28704979 13.30937626 16.43229583
318  2 -0.66700  8.38273305 16.93920614 16.43229583
319  2 -0.66700  2.09568326 20.56903603 16.43229583
320  2 -0.66700  4.19136653  2.41988659 16.43229583
321  2 -0.66700  6.28704979  6.04971648 16.43229583
322  2 -0.66700  8.38273305  9.67954637 16.43229583
323  2 -0.66700 10.47841631 13.30937626 16.43229583
324  2 -0.66700 12.57409958 16.93920614 16.43229583
325  2 -0.66700  6.28704979 20.56903603 16.43229583
326  2 -0.66700  8.38273305  2.41988659 16.43229583
327  2 -0.66700 10.47841631  6.04971648 16.43229583
328  2 -0.66700 12.57409958  9.67954637 16.43229583
329  2 -0.66700 14.66978284 13.30937626 16.43229583
330  2 -0.66700  0.00000000 16.93920614 16.43229583
331  2 -0.66700 10.47841631 20.56903603 16.43229583
332  2 -0.66700 12.57409958  2.41988659 16.43229583
333  2 -0.66700 14.66978284  6.04971648 16.43229583
334  2 -0.66700  0.00000000  9.67954637 16.43229583
335  2 -0.66700 14.66978284 20.56903603 16.43229583
336  2 -0.66700  0.00000000  2.41988659 16.43229583
337  2 -0.66700  2.09568326 15.72926285 13.49639137
338  2 -0.66700  4.19136653 19.35909274 13.49639137
339  2 -0.66700  2.09568326  8.46960307 13.49639137
340  2 -0.66700  4.19136653 12.09943296 13.49639137
341  2 -0.66700  6.28704979 15.72926285 13.49639137
342  2 -0.66700  8.38273305 19.35909274 13.49639137
343  2 -0.66700  2.09568326  1.20994330 13.49639137
344  2 -0.66700  4.19136653  4.83977318 13.49639137
345  2 -0.66700  6.28704979  8.46960307 13.49639137
346  2 -0.66700  8.38273305 12.09943296 13.49639137
347  2 -0.66700 10.47841631 15.72926285 13.49639137
348  2 -0.66700 12.57409958 19.35909274 13.49639137
349  2 -0.66700  6.28704979  1.20994330 13.49639137
350  2 -0.66700  8.38273305  4.83977318 13.49639137
351  2 -0.66700 10.47841631  8.46960307 13.49639137
352  2 -0.66700 12.57409958 12.09943296 13.49639137
353  2 -0.66700 14.66978284 15.72926285 13.49639137
354  2 -0.66700  0.00000000 19.35909274 13.49639137
355  2 -0.66700 10.47841631  1.20994330 13.49639137
356  2 -0.66700 12.57409958  4.83977318 13.49639137
357  2 -0.66700 14.66978284  8.46960307 13.49639137
358  2 -0.66700  0.00000000 12.09943296 13.49639137
359  2 -0.66700 14.66978284  1.20994330 13.49639137
360  2 -0.66700  0.00000000  4.83977318 13.49639137

