Generated by pymatgen.io.lammps.data.LammpsData

320  atoms

  2  atom types

0.000000 16.915523  xlo xhi
0.000000 23.274263  ylo yhi
0.000000 24.472453  zlo zhi

Masses

1  208.9804
2   78.9600

Atoms

1    1  0.8372  0.874959 11.159300 10.475400
2    1  0.8165  0.765965 11.189600 22.565200
3    1  0.8297  0.845925 22.844700 10.546300
4    1  0.8213  0.904371 22.832200 22.685700
5    1  0.8194  5.147700 11.040200 10.512800
6    1  0.7834  5.283400 11.215500 22.672600
7    1  0.8362  4.990400 22.574500 10.530100
8    1  0.8199  5.106350 22.832200 22.716700
9    1  0.8151  9.316140 11.204600 10.554100
10   1  0.8214  9.250730 11.257300 22.677200
11   1  0.8322  9.446690 22.795600 10.523700
12   1  0.8497  9.446170 22.910500 22.739000
13   1  0.8311 13.478900 11.234100 10.643800
14   1  0.7986 13.582300 11.165800 22.647700
15   1  0.8406 13.524300 22.828000 10.392800
16   1  0.8199 13.600900 22.877300 22.788200
17   1  0.8457  3.071300  0.434808  1.739100
18   1  0.8169  2.932480  0.326817 13.881000
19   1  0.8216  3.087930 12.060900  1.646490
20   1  0.8283  2.910620 11.909900 13.976500
21   1  0.8284  7.257450  0.553381  1.683820
22   1  0.8354  7.160240  0.210309 13.953000
23   1  0.8337  7.135400 12.032600  1.663320
24   1  0.8337  7.216110 11.896600 14.049800
25   1  0.8352 11.419600  0.439368  1.724100
26   1  0.8234 11.440300  0.180562 13.912300
27   1  0.8547 11.452900 12.051400  1.515810
28   1  0.8192 11.500600 11.997800 13.953100
29   1  0.8428 15.733200  0.293618  1.665580
30   1  0.8393 15.753000  0.368615 13.881600
31   1  0.8193 15.527800 11.908500  1.572620
32   1  0.8391 15.636000 11.824000 13.953400
33   1  0.8219  2.998480  5.367160  7.724320
34   1  0.8319  2.879870  5.324980 20.037800
35   1  0.8213  2.908820 16.981000  7.971970
36   1  0.8204  2.945910 17.090000 19.918200
37   1  0.8159  7.175540  5.410690  7.785680
38   1  0.8381  7.221450  5.402660 20.134400
39   1  0.8260  7.101220 17.074100  8.023640
40   1  0.8459  7.141330 17.057100 19.881900
41   1  0.8389 11.601100  5.597230  7.824530
42   1  0.8286 11.501600  5.398860 19.957600
43   1  0.8349 11.517600 17.023200  7.933800
44   1  0.8139 11.343800 16.956600 19.976200
45   1  0.8446 15.724700  5.484090  7.801510
46   1  0.8282 15.546700  5.397640 20.004300
47   1  0.8283 15.575400 17.146200  7.765770
48   1  0.8121 15.721400 16.967900 19.954200
49   1  0.8246  0.938469  6.223650  4.332530
50   1  0.8433  0.799971  6.229460 16.691400
51   1  0.8556  0.918844 17.849800  4.476170
52   1  0.8315  0.840739 17.860000 16.618200
53   1  0.8082  5.270250  6.228330  4.280630
54   1  0.8372  5.186570  6.182450 16.800400
55   1  0.8207  5.101160 17.794900  4.491570
56   1  0.8125  5.146190 17.875900 16.542700
57   1  0.8291  9.406900  6.233190  4.423130
58   1  0.8276  9.277960  6.088490 16.668400
59   1  0.8210  9.414090 17.838900  4.411520
60   1  0.8250  9.419800 17.783700 16.625000
61   1  0.8357 13.645600  6.266890  4.372570
62   1  0.8339 13.503600  6.226400 16.590500
63   1  0.8169 13.604000 17.892000  4.348040
64   1  0.8111 13.546700 17.693700 16.797700
65   1  0.8298  0.953874  1.803460  6.128760
66   1  0.8120  0.982126  1.818550 18.136200
67   1  0.8215  0.836669 13.386000  5.957340
68   1  0.8226  0.789389 13.504000 18.140600
69   1  0.8207  4.997150  1.767190  6.178610
70   1  0.8211  4.975640  1.939730 18.018600
71   1  0.8220  5.105510 13.424800  6.126570
72   1  0.8226  5.047560 13.487100 18.084900
73   1  0.8141  9.531470  1.852590  6.003460
74   1  0.8373  9.376280  1.907280 18.038400
75   1  0.8227  9.426280 13.478300  6.074760
76   1  0.8350  9.336160 13.465300 18.280100
77   1  0.8258 13.476300  1.822680  6.004520
78   1  0.8288 13.522200  1.938620 18.306500
79   1  0.8293 13.572900 13.515600  6.084980
80   1  0.8221 13.572600 13.537500 18.139700
81   1  0.8311  3.015710  9.782960  6.260920
82   1  0.8257  3.151600  9.834410 18.519600
83   1  0.8377  2.939290 21.220600  6.406600
84   1  0.8256  3.035400 21.522000 18.305700
85   1  0.8108  7.329360  9.821280  6.271090
86   1  0.8345  7.135580  9.821700 18.598300
87   1  0.8204  7.401680 21.493900  6.210860
88   1  0.8117  7.221020 21.393800 18.390600
89   1  0.8413 11.479600  9.596470  6.262630
90   1  0.8487 11.448100  9.786550 18.546700
91   1  0.8372 11.430500 21.380900  6.179750
92   1  0.8226 11.538200 21.435300 18.337200
93   1  0.8439 15.602800  9.734800  6.270810
94   1  0.8344 15.520200  9.653130 18.463500
95   1  0.8448 15.762600 21.148700  6.238000
96   1  0.8344 15.580700 21.408600 18.489500
97   1  0.8424  2.847000  7.776800 12.321700
98   1  0.8182  3.032400  7.607500  0.102616
99   1  0.8406  2.903340 19.317400 12.525400
100  1  0.8056  3.238400 19.315200  0.287485
101  1  0.8350  7.128790  7.658270 12.359300
102  1  0.8402  7.202550  7.728290  0.094944
103  1  0.8402  7.309410 19.288500 12.480800
104  1  0.8225  7.265810 19.290000  0.312718
105  1  0.8439 11.403900  7.697050 12.494600
106  1  0.8260 11.461800  7.654050  0.174293
107  1  0.8305 11.421900 19.286300 12.499600
108  1  0.8127 11.526600 19.424000  0.225656
109  1  0.8361 15.699000  7.707340 12.468400
110  1  0.8287 15.692300  7.759110  0.077875
111  1  0.8329 15.573300 19.356500 12.479100
112  1  0.8073 15.468100 19.232200  0.290727
113  1  0.8325  0.701497  3.851860 24.361900
114  1  0.8424  0.869932  4.002420 12.073400
115  1  0.8492  0.980661 15.411800 24.535100
116  1  0.8391  0.913540 15.689500 12.101200
117  1  0.8207  5.129500  3.854100 24.434200
118  1  0.8264  5.191240  3.806290 11.968400
119  1  0.8321  5.069160 15.599000 24.469000
120  1  0.8243  5.217850 15.667300 12.074000
121  1  0.8429  9.351270  3.942490 24.459900
122  1  0.8293  9.268080  3.828830 12.163100
123  1  0.8577  9.282220 15.455600 24.397300
124  1  0.8535  9.427100 15.447900 12.202300
125  1  0.8213 13.628700  3.919880 24.297700
126  1  0.8380 13.600900  3.958720 11.951900
127  1  0.8223 13.393800 15.704500 24.463000
128  1  0.8288 13.598800 15.583700 12.016300
129  2 -0.5278  0.822545  3.640880  8.498850
130  2 -0.5208  0.719023  3.552950 20.661800
131  2 -0.5044  0.799591 15.121300  8.488140
132  2 -0.4981  1.001370 15.185800 20.678000
133  2 -0.5418  4.983860  3.521870  8.522200
134  2 -0.4945  5.034360  3.499600 20.629100
135  2 -0.5245  5.203760 15.168100  8.628650
136  2 -0.4714  5.141280 15.165700 20.639500
137  2 -0.4820  9.400440  3.592950  8.537180
138  2 -0.4845  9.332240  3.586050 20.689400
139  2 -0.4938  9.274450 15.143600  8.629800
140  2 -0.5081  9.141170 15.141800 20.613200
141  2 -0.5313 13.614000  3.687010  8.407580
142  2 -0.5461 13.554600  3.637090 20.865600
143  2 -0.5351 13.617600 15.215300  8.602610
144  2 -0.5069 13.579600 15.111400 20.699600
145  2 -0.4979  3.047630  8.092820  3.627470
146  2 -0.4950  3.094580  7.928100 16.044700
147  2 -0.5200  3.068080 19.715500  3.867360
148  2 -0.5147  2.939490 19.792800 15.867800
149  2 -0.5021  7.308650  8.170330  3.673430
150  2 -0.4994  7.184290  8.055180 16.079500
151  2 -0.5116  7.178610 19.745900  3.737910
152  2 -0.5250  7.405610 19.754800 15.872800
153  2 -0.5241 11.502700  8.062970  3.780490
154  2 -0.4996 11.363800  7.939620 15.854200
155  2 -0.5328 11.426400 19.756100  3.677570
156  2 -0.5246 11.496600 19.621100 15.785300
157  2 -0.5232 15.665500  8.085530  3.782530
158  2 -0.5182 15.563400  8.169720 15.879100
159  2 -0.5601 15.768900 19.652000  3.825570
160  2 -0.5025 15.649200 19.645600 15.882700
161  2 -0.5281  2.892090  9.290670  9.846320
162  2 -0.4880  2.964270  9.278370 21.963400
163  2 -0.5359  2.871810 20.946400  9.948820
164  2 -0.4973  3.080350 20.908500 22.105400
165  2 -0.5376  7.321880  9.234800  9.940070
166  2 -0.5342  7.318770  9.239290 21.930300
167  2 -0.5024  7.296000 20.929900  9.927560
168  2 -0.4840  7.280120 21.035800 22.110300
169  2 -0.5250 11.493600  9.420830 10.001200
170  2 -0.5089 11.350000  9.379740 22.007100
171  2 -0.4973 11.550100 20.900300  9.809060
172  2 -0.5060 11.377400 21.039800 22.075300
173  2 -0.4841 15.635000  9.267230  9.891630
174  2 -0.5243 15.704900  9.267490 21.954000
175  2 -0.5033 15.609400 20.982700  9.869430
176  2 -0.4907 15.677600 20.959000 21.988000
177  2 -0.4964  0.833163  2.186780  2.373700
178  2 -0.5116  0.880028  2.282320 14.501400
179  2 -0.5143  0.867614 13.716100  2.406890
180  2 -0.4928  0.860814 13.726500 14.676300
181  2 -0.5308  5.147570  2.297860  2.411810
182  2 -0.5056  5.051000  2.302310 14.611100
183  2 -0.5465  5.127790 13.853100  2.369400
184  2 -0.4960  5.048170 13.787800 14.667600
185  2 -0.5480  9.384550  2.270640  2.372840
186  2 -0.5202  9.208290  2.123080 14.627400
187  2 -0.4921  9.380010 13.831200  2.334230
188  2 -0.4992  9.465930 13.775700 14.696300
189  2 -0.4895 13.467900  2.265820  2.449420
190  2 -0.4600 13.689200  2.249360 14.584200
191  2 -0.5173 13.465300 13.836500  2.344400
192  2 -0.4939 13.716000 13.866400 14.646100
193  2 -0.5309  0.881366 10.838700  4.703260
194  2 -0.5196  0.882875 10.856100 16.822100
195  2 -0.5103  0.936157 22.548400  4.697640
196  2 -0.5419  0.822247 22.632000 16.748800
197  2 -0.5384  5.089320 10.980300  4.675680
198  2 -0.5705  5.185630 10.892300 16.905700
199  2 -0.5196  5.030440 22.539500  4.826660
200  2 -0.5650  5.132930 22.548800 16.719400
201  2 -0.5181  9.515180 10.948200  4.689200
202  2 -0.5178  9.269650 10.911400 16.904300
203  2 -0.5704  9.422910 22.563000  4.662640
204  2 -0.5209  9.528060 22.569200 16.605300
205  2 -0.5239 13.498400 10.965500  4.710420
206  2 -0.5345 13.400900 10.784200 16.815000
207  2 -0.5222 13.536900 22.608900  4.591540
208  2 -0.5355 13.565000 22.584000 16.827800
209  2 -0.5503  2.865560  0.568523  7.831860
210  2 -0.5640  3.074910  0.654874 19.766100
211  2 -0.5387  3.024510 12.229000  7.753090
212  2 -0.5297  3.013370 12.322400 19.862800
213  2 -0.5294  7.329060  0.686778  7.668920
214  2 -0.4829  7.228030  0.742654 19.795000
215  2 -0.5435  7.193310 12.297900  7.757540
216  2 -0.5469  7.092150 12.297600 19.924200
217  2 -0.5471 11.537200  0.696585  7.810170
218  2 -0.5521 11.340400  0.708627 19.640300
219  2 -0.5198 11.471100 12.338000  7.792570
220  2 -0.5513 11.469900 12.341800 19.827200
221  2 -0.5111 15.631600  0.585636  7.665920
222  2 -0.5350 15.581900  0.653259 19.841800
223  2 -0.5262 15.639100 12.279900  7.719170
224  2 -0.5502 15.684800 12.208400 19.779900
225  2 -0.5259  2.926720  4.963050  1.507230
226  2 -0.4778  2.901270  5.194050 13.720100
227  2 -0.5550  2.893040 16.730200  1.625840
228  2 -0.5426  2.941090 16.759600 13.752700
229  2 -0.5599  7.270450  5.274420  1.434340
230  2 -0.5460  7.243970  5.090570 13.658600
231  2 -0.5432  7.297640 16.713500  1.572050
232  2 -0.5521  7.336210 16.688100 13.710400
233  2 -0.5305 11.431900  5.144080  1.563810
234  2 -0.5130 11.583300  5.020500 13.700600
235  2 -0.5463 11.366300 16.735400  1.619430
236  2 -0.5296 11.470500 16.634300 13.730800
237  2 -0.5335 15.639800  5.174930  1.535640
238  2 -0.5286 15.721400  5.140500 13.705900
239  2 -0.5363 15.639500 16.706000  1.581810
240  2 -0.5241 15.796400 16.721700 13.726000
241  2 -0.5177  0.762493  6.458760 10.624100
242  2 -0.5193  0.801568  6.442080 22.986300
243  2 -0.5356  0.863475 18.108700 10.730800
244  2 -0.4679  0.930297 18.074100 23.126400
245  2 -0.5233  4.979070  6.517510 10.796200
246  2 -0.5244  5.123950  6.526300 22.947400
247  2 -0.5389  5.058630 18.208600 10.787300
248  2 -0.5271  5.224610 18.087800 23.035200
249  2 -0.5069  9.336740  6.471070 10.800100
250  2 -0.5206  9.368970  6.446650 23.049500
251  2 -0.5213  9.331300 18.092500 10.794500
252  2 -0.4905  9.306420 18.101300 23.114100
253  2 -0.5109 13.522800  6.554450 10.736800
254  2 -0.5284 13.707100  6.594100 22.954000
255  2 -0.5287 13.508700 18.184200 10.743900
256  2 -0.5543 13.471200 18.111000 23.053700
257  2 -0.6055  0.929030 10.069400  0.803228
258  2 -0.6553  0.756527  9.890330 13.066000
259  2 -0.5971  0.976561 21.785400  0.866974
260  2 -0.6242  0.856848 21.574400 13.150600
261  2 -0.6182  5.216910  9.873440  0.925635
262  2 -0.6197  4.931470  9.923740 13.165700
263  2 -0.6278  5.225710 21.817700  0.922312
264  2 -0.6315  5.031440 21.588900 13.071400
265  2 -0.6059  9.286200 10.165300  0.882519
266  2 -0.6033  9.273520  9.940670 13.231400
267  2 -0.6122  9.371330 21.746200  0.867861
268  2 -0.6296  9.225030 21.560000 13.058700
269  2 -0.6535 13.564800  9.990680  0.779685
270  2 -0.6323 13.541600  9.919620 13.171000
271  2 -0.6546 13.649500 21.737200  0.913399
272  2 -0.6233 13.526700 21.630000 13.065400
273  2 -0.6014  2.937900  1.631700 11.341200
274  2 -0.6137  3.037360  1.566990 23.611100
275  2 -0.5674  2.972870 13.168300 11.317300
276  2 -0.5925  3.127970 13.440000 23.578400
277  2 -0.5917  7.239410  1.414460 11.323600
278  2 -0.6020  7.356250  1.742160 23.510100
279  2 -0.5975  7.169330 13.173900 11.510800
280  2 -0.6192  7.286770 13.365100 23.592600
281  2 -0.5997 11.446100  1.627760 11.350900
282  2 -0.6225 11.497700  1.550380 23.543900
283  2 -0.6267 11.375800 13.383300 11.399000
284  2 -0.6257 11.260000 13.242500 23.570000
285  2 -0.6111 15.610200  1.534270 11.320900
286  2 -0.6340 15.695700  1.598560 23.627400
287  2 -0.5964 15.618100 13.107600 11.428200
288  2 -0.5977 15.751700 13.267000 23.517200
289  2 -0.5960  2.942480  4.065120  5.152010
290  2 -0.6235  2.933600  4.236850 17.406800
291  2 -0.6091  2.925410 15.912800  5.297770
292  2 -0.6170  2.958420 15.951500 17.318600
293  2 -0.5969  7.242510  4.210180  5.188630
294  2 -0.6383  7.184880  4.146040 17.530000
295  2 -0.5884  7.185840 15.833200  5.280090
296  2 -0.6067  7.230730 15.797700 17.325300
297  2 -0.6209 11.447700  4.319960  5.304720
298  2 -0.6435 11.414500  4.185800 17.401500
299  2 -0.6091 11.517100 15.806300  5.324470
300  2 -0.6321 11.393800 15.710200 17.342600
301  2 -0.5857 15.727000  4.289140  5.193330
302  2 -0.6083 15.633900  4.220950 17.376300
303  2 -0.6153 15.713800 15.928700  5.280880
304  2 -0.6491 15.684800 15.713700 17.448300
305  2 -0.6016  0.864853  7.445270  7.004720
306  2 -0.6053  0.843381  7.374380 19.131300
307  2 -0.6482  0.802155 19.067200  6.986000
308  2 -0.6126  0.817576 19.173900 19.092400
309  2 -0.6199  5.160880  7.391790  6.975820
310  2 -0.5974  5.121870  7.401170 19.407500
311  2 -0.6066  5.082330 18.972100  7.151520
312  2 -0.6330  5.116550 19.069800 19.053500
313  2 -0.6221  9.410070  7.492950  7.058890
314  2 -0.5940  9.399010  7.414170 19.187700
315  2 -0.5920  9.562620 19.054900  7.065100
316  2 -0.6230  9.300180 18.913200 19.179300
317  2 -0.6431 13.605400  7.569740  6.977880
318  2 -0.6490 13.463900  7.460780 19.093700
319  2 -0.6192 13.509500 19.167700  6.917700
320  2 -0.6284 13.537000 19.013200 19.200900

