Generated by pymatgen.io.lammps.data.LammpsData

320  atoms

  2  atom types

0.000000 16.864293  xlo xhi
0.000000 23.165087  ylo yhi
0.000000 24.472453  zlo zhi

Masses

1  208.9804
2   78.9600

Atoms

1    1  0.8315  0.853780 11.289500 10.417100
2    1  0.8449  0.698678 11.007800 23.471800
3    1  0.8005  0.871374 22.590800 10.484100
4    1  0.8653  0.822909 22.344400 22.380000
5    1  0.8896  4.931460 11.291200 10.808100
6    1  0.8770  5.051330 10.535200 23.257800
7    1  0.8360  5.258270 22.982500 11.911800
8    1  0.8090  5.344350 22.265100 22.798600
9    1  0.8108  9.374140 10.757700 10.789600
10   1  0.8720  9.577000 10.911800 23.590300
11   1  0.8150  9.704560 23.010000 10.071800
12   1  0.8447  9.557140 23.240800 23.072200
13   1  0.7684 13.243400 11.102500 10.920800
14   1  0.8427 13.865300 11.152600 22.827900
15   1  0.8719 13.463300 22.525300  9.986330
16   1  0.8532 13.923600 22.645500 22.743600
17   1  0.7632  3.648930  0.930029  2.069110
18   1  0.7953  2.874380  0.677609 15.547600
19   1  0.7679  2.734300 11.816100  2.775360
20   1  0.7870  2.804380 12.064400 14.991600
21   1  0.8434  7.642410  0.330440  2.926060
22   1  0.8078  7.203280  1.009500 15.206800
23   1  0.8277  7.284970 12.150500  2.583250
24   1  0.8706  7.432690 11.994500 14.412500
25   1  0.8110 11.440000 23.038500  2.626710
26   1  0.8057 11.217400  0.492963 14.932500
27   1  0.8569 11.396400 11.262000  3.040560
28   1  0.8394 11.097900 12.508100 14.676400
29   1  0.8619 15.889800 23.107400  1.460610
30   1  0.8142 15.876500 23.107900 13.958900
31   1  0.7537 15.893000 11.425900  2.557210
32   1  0.7920 15.264700 12.020000 13.950100
33   1  0.7609  3.179340  5.738560  9.593740
34   1  0.7948  2.900550  5.324980 21.024200
35   1  0.7358  3.346760 17.070900  8.785760
36   1  0.8543  2.751330 16.742900 21.313400
37   1  0.7873  7.207330  5.308540  9.042770
38   1  0.8332  7.303820  5.163830 21.059200
39   1  0.7870  7.825760 16.960900  8.274280
40   1  0.7567  7.266640 16.975700 20.956200
41   1  0.7821 11.614100  5.116540  8.961060
42   1  0.8281 11.576700  5.559230 20.820700
43   1  0.9073 11.987900 16.873600  7.619140
44   1  0.7998 11.391900 16.573300 20.975000
45   1  0.8446 15.771500  5.478840  8.667320
46   1  0.8117 14.858500  5.682330 20.756500
47   1  0.7750 15.935100 15.587900  8.850690
48   1  0.8066 15.704500 16.751400 20.923900
49   1  0.8498  1.755640  5.847060  4.485360
50   1  0.7648  1.079530  5.844760 17.386900
51   1  0.8951  1.667420 17.405100  5.165050
52   1  0.8353  0.743507 17.390200 16.185200
53   1  0.8565  5.720710  5.736650  4.514430
54   1  0.8109  5.148580  6.493800 17.534800
55   1  0.8330  5.589430 17.864600  5.092620
56   1  0.8389  4.703660 17.359200 17.280800
57   1  0.8900  9.668430  5.781970  4.815230
58   1  0.8041  9.511700  6.411740 17.765200
59   1  0.7791  9.764250 17.400300  3.913150
60   1  0.8086  8.861080 16.939400 16.894000
61   1  0.8423 14.040500  5.887840  4.660340
62   1  0.8416 13.410500  5.929850 17.024700
63   1  0.8199 13.546000 17.454600  3.982680
64   1  0.8197 13.173300 17.895600 16.814500
65   1  0.8208  1.273140  1.966420  6.121430
66   1  0.7386  0.870394  2.081440 18.326700
67   1  0.7642  1.657550 12.683400  6.419190
68   1  0.8477  0.936320 13.373000 19.079200
69   1  0.8757  5.619240  1.850580  5.482600
70   1  0.7187  4.888680  1.798310 18.898800
71   1  0.8474  5.397540 13.600400  6.741380
72   1  0.8216  5.005430 13.518500 18.706800
73   1  0.8001  9.939680  1.626570  6.416220
74   1  0.8243  9.384430  1.908040 18.481300
75   1  0.8848 10.135900 13.593500  6.329200
76   1  0.8085  9.075670 13.375800 18.690900
77   1  0.8111 14.116700  1.592210  6.125430
78   1  0.8506 13.240300  1.549870 18.182100
79   1  0.8280 14.461900 13.686100  6.000730
80   1  0.8708 13.134200 13.139000 18.874300
81   1  0.9170  3.809090  8.892520  7.250150
82   1  0.8069  2.976810  9.466930 19.031900
83   1  0.8261  3.292190 21.630600  5.826740
84   1  0.8010  3.176630 21.175400 19.259900
85   1  0.8599  7.793380  8.909750  7.226000
86   1  0.8013  7.305050  9.921070 18.896300
87   1  0.8077  7.777670 20.579300  6.473150
88   1  0.7774  7.615790 20.404200 19.062800
89   1  0.8616 11.906200  9.077910  6.911090
90   1  0.8851 11.610800  9.396330 19.018400
91   1  0.7926 11.481400 20.799000  6.825290
92   1  0.8331 11.595900 20.945900 18.812200
93   1  0.8308 16.055400  9.055340  6.695910
94   1  0.8715 15.779100  9.200080 19.507300
95   1  0.8682 16.002400 20.842000  6.739680
96   1  0.8565 15.945300 20.929000 18.723700
97   1  0.8291  2.716630  7.652880 12.983400
98   1  0.8105  3.060090  7.721570  1.185190
99   1  0.7831  2.645320 19.290500 11.487600
100  1  0.8354  3.014000 18.972100  0.990755
101  1  0.8396  7.434160  7.431920 12.836000
102  1  0.7572  7.283730  7.860660  1.052710
103  1  0.7811  7.557470 19.831200 12.620100
104  1  0.8550  7.210870 19.284200  0.639807
105  1  0.8041 11.156800  7.809690 13.205900
106  1  0.8016 11.276500  7.369060  1.362760
107  1  0.7987 11.282200 19.701300 12.533000
108  1  0.7982 11.941500 18.602200  0.566043
109  1  0.8291 15.907400  7.932070 13.909700
110  1  0.9052 15.917700  7.324070  0.642758
111  1  0.8077 15.419500 18.868700 12.796400
112  1  0.7760 15.608600 18.434200  0.522262
113  1  0.8801  0.737282  3.604130  0.163633
114  1  0.7679  1.159460  3.671500 12.369400
115  1  0.8013  0.966086 15.102500  0.459186
116  1  0.7723  0.895565 15.044400 12.236800
117  1  0.7873  5.607990  3.874770  0.360596
118  1  0.7719  5.206050  3.743710 12.798500
119  1  0.8600  4.909320 15.064300  0.171951
120  1  0.7723  4.755620 15.316900 12.276200
121  1  0.7821  9.369800  3.397730  0.248990
122  1  0.8180  9.292370  3.892850 12.398300
123  1  0.7374  9.327750 15.599900  0.264253
124  1  0.8525  9.402700 15.561700 12.412100
125  1  0.8735 13.881500  3.487050 24.349100
126  1  0.8196 14.146100  3.769000 12.508500
127  1  0.7766 13.300700 14.999300  0.179027
128  1  0.8523 13.513200 15.448900 12.064500
129  2 -0.4866  0.754361  3.486200  9.012720
130  2 -0.4528  0.673360  3.542680 21.103000
131  2 -0.6307  1.687160 14.690200  8.504150
132  2 -0.5253  1.047650 14.603800 21.548400
133  2 -0.4248  5.172340  3.160650  9.507680
134  2 -0.5189  5.970330  2.983300 21.446200
135  2 -0.5441  5.516960 14.946200  9.214330
136  2 -0.4441  4.472480 14.611500 21.453400
137  2 -0.5338  9.172020  3.251510  9.575240
138  2 -0.5045  9.244390  3.440450 21.172600
139  2 -0.4792 10.266000 14.943500  8.689670
140  2 -0.5223  9.301900 14.545200 21.776600
141  2 -0.4841 13.982100  3.399900  9.104560
142  2 -0.5271 13.403300  3.403150 21.796500
143  2 -0.5537 13.382200 15.073700  9.146510
144  2 -0.5796 13.628700 14.904000 21.317400
145  2 -0.5112  3.626210  7.798980  4.109430
146  2 -0.5151  2.956620  8.165780 16.374700
147  2 -0.5860  3.517180 19.036600  4.037850
148  2 -0.3755  3.283770 19.419800 16.594100
149  2 -0.5167  7.761730  7.665740  4.282740
150  2 -0.5362  7.497830  8.258590 16.752500
151  2 -0.5211  7.503780 19.642600  3.838420
152  2 -0.4050  6.933160 19.631300 16.287100
153  2 -0.5694 11.342400  7.978240  4.311200
154  2 -0.4985 11.410200  8.184860 16.282900
155  2 -0.5685 11.767800 19.523200  3.418900
156  2 -0.5439 10.932100 19.069400 16.189200
157  2 -0.5086 16.160600  7.857330  4.111580
158  2 -0.4778 15.592900  8.246380 16.752100
159  2 -0.4355 16.376800 19.283200  4.133990
160  2 -0.4861 15.570000 20.265700 15.996800
161  2 -0.5369  3.191490  9.138990 10.095400
162  2 -0.4768  2.808920  8.883890 22.758400
163  2 -0.4790  3.670430 21.496600 10.091600
164  2 -0.4705  3.099530 20.405400 22.405100
165  2 -0.5968  7.358140  9.163170  9.930140
166  2 -0.4935  7.500150  9.340350 22.828900
167  2 -0.4496  7.735030 21.072500  9.777810
168  2 -0.4903  7.329570 19.982200 22.374600
169  2 -0.5824 11.629900  9.141120 10.218100
170  2 -0.4253 11.570200  9.096970 22.524800
171  2 -0.5699 11.216400 20.731700  9.777630
172  2 -0.4086 11.744300 20.782500 22.450400
173  2 -0.4559 15.849400  9.421410 10.279700
174  2 -0.5341 15.586300  8.668160 22.536400
175  2 -0.4844 15.607500 20.694100  9.821380
176  2 -0.4941 16.042100 20.314800 21.669500
177  2 -0.5386  0.841981  2.277030  2.649080
178  2 -0.5319  0.435038  2.281930 14.923700
179  2 -0.5246  1.399650 13.950400  3.746800
180  2 -0.5074  0.573379 13.994300 15.133800
181  2 -0.6857  5.752110  2.457230  2.771050
182  2 -0.5323  4.861530  2.711450 15.754100
183  2 -0.4308  5.390790 13.873300  3.258490
184  2 -0.4834  5.266600 13.962200 15.198600
185  2 -0.5659  9.554170  2.134020  3.214310
186  2 -0.5342  9.419470  2.630370 15.710200
187  2 -0.5129  9.455720 13.674900  3.149170
188  2 -0.6418  8.916730 13.939100 14.937200
189  2 -0.4134 13.938200  2.264020  3.049560
190  2 -0.4701 14.075800  2.162820 14.812700
191  2 -0.4528 13.882100 13.494000  3.008860
192  2 -0.4410 13.298300 14.063500 15.056900
193  2 -0.5679  1.542430 10.038400  5.344520
194  2 -0.5048  1.075120 10.782900 17.492700
195  2 -0.5489  0.584944 22.810500  4.786080
196  2 -0.6081  1.279200 22.355500 17.828200
197  2 -0.3898  5.748150 10.529200  5.203140
198  2 -0.5590  5.138920 10.991000 17.174500
199  2 -0.6202  5.454230 22.534000  4.292780
200  2 -0.5548  4.943660 22.752300 16.925600
201  2 -0.4722  9.720440 10.839300  5.307530
202  2 -0.6133 10.065300 11.190100 17.560200
203  2 -0.6182  9.812460 21.903800  4.859070
204  2 -0.5434  9.527410 22.430400 16.850000
205  2 -0.5168 14.178900 10.452800  4.682900
206  2 -0.4454 13.766600 10.666500 17.804300
207  2 -0.4815 13.887800 22.149100  4.824900
208  2 -0.5780 13.033200 22.393400 16.929900
209  2 -0.5290  3.245150  0.630249  7.104590
210  2 -0.6189  3.055380  0.314212 20.792200
211  2 -0.5993  4.082980 11.526700  8.034600
212  2 -0.4583  2.887600 11.993900 20.555100
213  2 -0.4598  7.631690  0.579452  7.313100
214  2 -0.5393  8.053420 22.792700 20.338500
215  2 -0.4208  8.031890 12.054400  8.018300
216  2 -0.4619  7.161300 12.132700 20.647000
217  2 -0.6914 11.705400  0.533780  8.077310
218  2 -0.5440 11.493000  0.422899 19.885500
219  2 -0.4728 12.275600 11.925500  7.472040
220  2 -0.5329 11.831700 12.035900 20.708000
221  2 -0.5174 15.681700  0.298252  8.136360
222  2 -0.5380 15.443900  0.284049 19.466200
223  2 -0.5865 15.959200 12.083900  7.931320
224  2 -0.5542 15.784400 11.699300 20.264200
225  2 -0.5964  3.104040  5.034970  2.223380
226  2 -0.5658  2.531760  4.971260 14.197000
227  2 -0.5319  3.057890 16.316100  1.694310
228  2 -0.5105  2.546850 16.762500 14.035700
229  2 -0.5574  7.730890  5.117430  2.542310
230  2 -0.5363  7.369550  5.200480 14.133200
231  2 -0.5418  7.108380 16.622600  1.912800
232  2 -0.4499  7.097910 16.869400 13.925000
233  2 -0.4822 11.836800  4.619320  1.876700
234  2 -0.4301 11.685800  4.752290 14.434800
235  2 -0.6902 11.577400 16.163100  2.124280
236  2 -0.5166 11.691400 16.651700 13.562400
237  2 -0.5296 15.821900  4.728930  1.796010
238  2 -0.5101 15.610700  5.386220 15.000700
239  2 -0.5694 15.516500 16.188800  2.156520
240  2 -0.5462 15.398400 16.630500 14.168200
241  2 -0.5702  0.425353  6.355600 11.095200
242  2 -0.5540  0.935401  6.024200 23.814300
243  2 -0.6788  0.630668 17.414400 10.912000
244  2 -0.5918  0.734687 17.712900 23.339800
245  2 -0.6673  5.033950  6.505210 11.824000
246  2 -0.5966  5.621840  6.358900 23.779300
247  2 -0.5455  5.316130 18.113300 10.443600
248  2 -0.5462  4.791740 17.579500 23.669000
249  2 -0.6528  9.617760  6.496630 11.264000
250  2 -0.5034  9.410280  5.757590 23.347300
251  2 -0.5361  9.265330 18.205900 11.037300
252  2 -0.5948  9.712520 18.056800 23.592100
253  2 -0.4800 13.870600  6.757050 12.140400
254  2 -0.5223 13.685000  6.144300 23.828900
255  2 -0.4547 13.336300 18.179300 10.843900
256  2 -0.6413 13.658400 17.812600 23.189100
257  2 -0.6946  0.657904  9.409250  1.268760
258  2 -0.5953  0.999079  9.817240 13.027200
259  2 -0.5666  1.094130 21.614100  0.345660
260  2 -0.5335  1.002980 20.521400 13.298000
261  2 -0.6124  4.781580 10.411500  1.616100
262  2 -0.4749  4.990900 10.306500 13.430500
263  2 -0.5093  5.416140 21.500400  1.100400
264  2 -0.4331  4.575310 21.448900 13.913800
265  2 -0.6531  9.422390  9.858330  1.799840
266  2 -0.6841  8.868840 10.132900 13.344900
267  2 -0.4955  9.448490 21.623000  1.114510
268  2 -0.5829  9.302380 22.198700 13.163500
269  2 -0.5057 13.414300  9.522590  1.100700
270  2 -0.5307 13.254200 10.176000 14.187500
271  2 -0.6348 14.314000 21.501500  0.671569
272  2 -0.5666 13.546300 21.653700 12.783000
273  2 -0.6362  2.868710  1.422050 12.523200
274  2 -0.5066  3.123290  1.877180 23.941600
275  2 -0.6595  2.906050 13.034500 11.673200
276  2 -0.5772  2.797270 12.733700 24.338800
277  2 -0.6592  7.254450  1.604810 12.530800
278  2 -0.5743  7.285750  1.158260 24.274400
279  2 -0.5071  7.115830 13.205500 11.637200
280  2 -0.5105  6.778220 12.779600 23.995000
281  2 -0.4818 11.673000  2.311260 11.545300
282  2 -0.6040 11.727500  1.333500 24.198300
283  2 -0.6462 11.410400 13.312100 12.138100
284  2 -0.5499 11.651500 12.571600 -0.039324
285  2 -0.5702 15.781500  0.905469 11.357300
286  2 -0.6470 15.776500  1.269300 23.449900
287  2 -0.7230 15.679800 13.209700 11.492100
288  2 -0.6537 15.832300 12.937000 23.924100
289  2 -0.5324  3.444700  4.174650  5.995750
290  2 -0.7070  3.370890  4.708420 18.517100
291  2 -0.5586  3.625340 15.714700  5.589620
292  2 -0.6135  2.781730 15.332100 18.183000
293  2 -0.5543  7.420210  3.798560  5.742070
294  2 -0.5355  7.100660  4.317620 18.177500
295  2 -0.5909  7.608820 15.578000  5.931700
296  2 -0.7108  6.852970 15.396600 18.235300
297  2 -0.5728 11.824900  4.281970  5.867990
298  2 -0.6499 11.136000  4.297300 18.390900
299  2 -0.6486 12.195200 15.379700  5.528280
300  2 -0.6257 10.939900 15.272100 18.220300
301  2 -0.5754 15.680500  4.412910  6.036840
302  2 -0.5714 15.133400  3.934390 18.668900
303  2 -0.5104 15.962100 15.894600  5.494300
304  2 -0.4276 15.020900 15.635400 17.532900
305  2 -0.5435  1.787270  7.160550  7.264520
306  2 -0.6391  0.745590  7.310240 20.000700
307  2 -0.5673  1.247660 19.159300  7.383160
308  2 -0.5154  0.795124 18.331800 19.034200
309  2 -0.6150  5.329240  6.873570  7.633340
310  2 -0.5842  5.282880  8.216440 20.159700
311  2 -0.5647  5.100430 19.590400  7.184790
312  2 -0.6053  4.690280 18.475100 20.030500
313  2 -0.6303  9.392080  6.896020  7.411870
314  2 -0.5787  9.481830  7.635920 20.239100
315  2 -0.7133  9.834970 18.335200  6.709120
316  2 -0.6431  9.208380 18.343000 19.494100
317  2 -0.6534 13.747700  7.450560  7.306630
318  2 -0.7713 13.125600  7.314840 19.332400
319  2 -0.5318 13.730700 19.029900  7.229220
320  2 -0.5827 13.646500 18.909500 19.271200

