Generated by pymatgen.io.lammps.data.LammpsData

216  atoms

  2  atom types

0.000000 18.096178  xlo xhi
0.000000 18.140645  ylo yhi
0.000000 18.233787  zlo zhi

Masses

1  208.9804
2   78.9600

Atoms

1    1  0.8181  0.606247 -0.077264  0.605719
2    1  0.7403  0.860310 18.372600  6.056230
3    1  0.8024  0.871265 17.996600 12.555200
4    1  0.7268  0.414773  5.924960  0.832300
5    1  0.8683  0.783856  5.854570  6.388820
6    1  0.6952  0.553201  5.546030 12.041200
7    1  0.8027  0.400522 11.443600  0.258077
8    1  0.8083  0.855513 12.109200  6.007550
9    1  0.7513  1.154210 12.168100 12.171200
10   1  0.7400  6.485840 17.932200  0.188827
11   1  0.8632  6.948210 18.302200  6.634720
12   1  0.8636  6.635160  0.296677 12.878800
13   1  0.7954  6.907740  5.660950  0.419213
14   1  0.7911  6.601670  5.523150  6.089270
15   1  0.7719  6.512920  5.712670 12.367500
16   1  0.7849  7.055870 11.425800  0.352930
17   1  0.7495  6.122060 12.295300  5.638450
18   1  0.8145  7.062900 12.090200 12.559800
19   1  0.7735 12.308800 17.690100 18.430200
20   1  0.6913 12.432800 17.792000  6.056770
21   1  0.9416 12.338100 17.940500 12.585800
22   1  0.8186 12.587700  5.396610  0.205079
23   1  0.8517 12.978300  5.829870  6.119800
24   1  0.7127 12.362400  5.578240 12.303200
25   1  0.7213 12.957700 11.813600  0.298820
26   1  0.7206 12.531500 11.761000  6.584610
27   1  0.7451 12.281500 11.817200 12.259900
28   1  0.8319  0.354550  2.878890  3.386340
29   1  0.7665  0.404200  3.014960  8.956830
30   1  0.7495  0.711623  3.159670 15.552600
31   1  0.7368  0.186510  8.671480  3.644540
32   1  0.8648  0.539988  8.775010  9.484660
33   1  0.7997  0.367617  9.159640 15.302800
34   1  0.8102  0.753802 14.674600  3.418320
35   1  0.7422  0.600201 14.975800  9.296830
36   1  0.7531  0.605991 15.031200 15.449200
37   1  0.8154  6.647240  2.813020  3.099170
38   1  0.7633  6.691380  2.901780  9.158860
39   1  0.7724  6.725250  3.152400 15.558600
40   1  0.8093  6.790510  8.647340  2.976700
41   1  0.7614  6.869850  8.882520  9.463800
42   1  0.8731  6.396380  8.514970 15.182500
43   1  0.7878  6.557320 14.926800  3.293160
44   1  0.7667  6.647040 15.173100  9.551970
45   1  0.7831  6.550500 14.632500 15.445900
46   1  0.7945 12.753200  2.733040  3.214140
47   1  0.7377 12.850800  2.700910  9.834480
48   1  0.7538 12.555500  2.563580 15.689400
49   1  0.7171 12.462200  9.461560  3.225010
50   1  0.7930 12.357400  9.088600  9.795680
51   1  0.8225 12.355000  8.514400 15.539500
52   1  0.8153 12.532000 15.126100  3.241620
53   1  0.7578 12.794600 15.635000  8.832520
54   1  0.7857 12.490800 14.399700 15.448000
55   1  0.7658  3.401330 17.732800  2.940530
56   1  0.7375  3.522760 17.677900  9.285100
57   1  0.7585  3.940210 -0.639278 15.489700
58   1  0.7533  3.692480  6.342590  3.221190
59   1  0.8166  3.714920  6.449800  9.026840
60   1  0.7040  3.846910  5.884650 15.393400
61   1  0.7404  3.076870 12.021000  2.693520
62   1  0.8267  3.645350 11.983700  9.351900
63   1  0.8745  3.606250 11.708600 15.770200
64   1  0.7676  9.822230  0.154072  3.454510
65   1  0.8323  9.905620 18.299400  9.574890
66   1  0.8916  9.550210 -0.271028 15.233900
67   1  0.8629  9.669750  5.766950  2.715330
68   1  0.7193  9.868480  5.927520  9.424230
69   1  0.7661  9.272060  5.361010 15.684900
70   1  0.8155  9.859270 12.173700  2.826150
71   1  0.7541  9.577470 11.639000  9.387650
72   1  0.8200  9.683330 12.112200 15.466300
73   1  0.7499 15.686900 18.116800  3.419060
74   1  0.8282 15.794200 18.162400  9.598830
75   1  0.7589 15.294200 17.827000 15.432000
76   1  0.8448 15.096300  5.958450  3.362150
77   1  0.7959 15.933400  5.759750  9.501950
78   1  0.8313 15.758800  5.895150 15.023700
79   1  0.8097 15.536500 11.826300  3.234390
80   1  0.7692 15.853600 12.088400  9.724160
81   1  0.7428 15.561800 11.972300 15.589700
82   1  0.8743  3.476270  3.117290 18.315500
83   1  0.8104  3.238950  3.021300  6.273560
84   1  0.8583  3.790950  3.105900 12.449500
85   1  0.7103  3.566620  9.026530  0.504034
86   1  0.7859  3.726020  8.863130  5.951900
87   1  0.8025  3.241950  9.006160 12.137300
88   1  0.7457  3.354830 14.885800  0.252235
89   1  0.7894  3.725690 14.466000  6.173380
90   1  0.7132  3.911850 14.214500 12.158300
91   1  0.7729  9.136770  2.552370  0.004657
92   1  0.7170  9.088320  2.957110  6.127500
93   1  0.7054  9.283460  3.082860 12.740800
94   1  0.8189  9.635870  9.113600  0.108367
95   1  0.7948  9.599400  8.982740  6.068490
96   1  0.7949  9.774830  9.045900 12.731100
97   1  0.8943  9.736260 14.746900  0.200996
98   1  0.7009  9.801480 14.995900  6.387430
99   1  0.8149  9.578410 14.519400 11.944500
100  1  0.6949 15.886000  3.290140  0.888035
101  1  0.7872 15.252800  2.881680  6.841680
102  1  0.7283 15.287600  2.796590 12.561000
103  1  0.8169 15.399900  9.213120  0.406305
104  1  0.8333 15.759900  8.716570  6.192740
105  1  0.8112 15.810000  8.871330 12.497900
106  1  0.8355 15.162600 15.144400  0.167553
107  1  0.7503 15.764500 15.478600  6.543980
108  1  0.7729 15.386000 14.920600 12.288100
109  2 -0.8019  3.324930 18.301300  0.310725
110  2 -0.6605  3.994590 -0.004511  6.159100
111  2 -0.6937  3.978830 18.323800 12.373000
112  2 -0.7649  4.028570  5.582180  0.553541
113  2 -0.8462  3.658460  6.000790  6.311040
114  2 -0.7975  3.637280  5.925710 11.977300
115  2 -0.8496  3.329440 12.255100  0.030660
116  2 -0.8275  3.666460 11.784400  6.578320
117  2 -0.8531  3.785800 11.751300 12.388400
118  2 -0.7510  9.171320 17.452400 18.341100
119  2 -0.8531  9.471210 -0.075743  6.264400
120  2 -0.7191  9.662670 -0.240628 12.527800
121  2 -0.8287  9.828120  5.763360 18.370300
122  2 -0.6887  9.708630  5.727260  5.651220
123  2 -0.8118  9.583100  6.332000 12.342100
124  2 -0.8908  9.819830 12.203100  0.020042
125  2 -0.7040  9.495370 11.715100  5.506510
126  2 -0.9653  9.518230 11.719200 12.317900
127  2 -0.7475 15.787000 17.882800 -0.035092
128  2 -0.8153 15.652000  0.241331  6.350220
129  2 -0.7506 15.182800 17.555800 12.427000
130  2 -0.7134 15.486600  5.974410 18.302400
131  2 -0.7915 15.588700  6.037710  5.945630
132  2 -0.8363 15.686000  5.770410 12.160000
133  2 -0.8748 15.817800 11.717500  0.506886
134  2 -0.6574 16.160200 11.569800  6.094770
135  2 -0.7777 15.466000 11.966000 12.396000
136  2 -0.6176  3.536590  2.977840  3.155390
137  2 -0.6700  3.343090  3.034320  9.444640
138  2 -0.7762  3.674540  2.920900 15.160300
139  2 -0.8732  4.157190  9.363760  2.982100
140  2 -0.7660  3.379440  9.162150  9.241100
141  2 -0.7715  3.552620  9.076220 15.417300
142  2 -0.9017  3.380420 14.832100  3.195980
143  2 -0.8471  3.448930 14.728500  8.866760
144  2 -0.7874  3.691950 14.598000 15.434500
145  2 -0.8106  9.646930  3.030290  2.853110
146  2 -0.8131  9.464570  2.983080  9.419840
147  2 -0.9488  9.440720  2.665010 15.659200
148  2 -0.7702  9.675230  8.771310  3.115150
149  2 -0.8293  9.673610  8.925160  9.381370
150  2 -0.7322  9.437690  8.770490 15.658600
151  2 -0.7425  9.435990 15.038400  3.128890
152  2 -0.7403  9.624590 15.598400  9.491660
153  2 -0.7451  9.620140 15.129600 15.608900
154  2 -0.8381 15.739200  3.349980  3.574960
155  2 -0.8939 15.615100  2.531520  9.734410
156  2 -0.7489 16.022800  3.241660 15.528400
157  2 -0.8495 15.484000  8.740030  3.164610
158  2 -0.6815 15.893500  8.755530  9.338220
159  2 -0.7218 15.386600  9.040330 15.483700
160  2 -0.6716 15.517600 15.000200  3.166180
161  2 -0.8296 15.569100 14.976900  9.230100
162  2 -0.8046 15.096100 14.932200 15.655500
163  2 -0.8182  0.365669 17.812300  3.269030
164  2 -0.7769  0.602312 17.745100  9.582250
165  2 -0.6959 19.246000 -0.141400 15.492700
166  2 -0.8044  0.543506  5.867550  3.781540
167  2 -0.8752  0.612153  5.922100  9.163490
168  2 -0.7524  0.373861  6.070290 15.584100
169  2 -0.8586  0.446311 11.807700  3.351620
170  2 -0.7517  0.646701 11.932900  9.246360
171  2 -0.7722  0.636380 11.574200 15.401700
172  2 -0.6829  6.710730 -0.087192  3.346310
173  2 -0.6986  7.060390 17.937800  9.647420
174  2 -0.8335  6.811540 17.796700 15.304500
175  2 -0.8175  6.499640  5.543840  3.416400
176  2 -0.7765  6.580350  5.972030  9.188860
177  2 -0.9046  6.593050  5.848500 15.505500
178  2 -0.7324  6.795640 11.656700  2.985120
179  2 -0.7552  6.824630 12.046700  9.221580
180  2 -0.7743  7.066840 11.878700 15.275100
181  2 -0.8809 12.598100  0.142404  3.320380
182  2 -0.8149 12.839100 18.189000  9.865710
183  2 -0.7731 12.470500 17.572600 15.351600
184  2 -0.7628 12.465700  6.051200  3.113270
185  2 -0.7126 13.076400  5.984870  9.128780
186  2 -0.7218 12.703000  5.503580 15.414800
187  2 -0.8442 12.524900 12.324300  3.367920
188  2 -0.8321 12.189300 11.935300  9.466080
189  2 -0.8441 12.367700 11.688200 15.476600
190  2 -0.7987  0.855562  2.749690  0.758712
191  2 -0.8860  0.669699  3.205810  6.125020
192  2 -0.6988  0.626606  2.475180 12.069900
193  2 -0.8060  0.334314  8.703950  0.600182
194  2 -0.7258  0.528992  9.026620  6.556390
195  2 -0.8326  0.431376  9.168610 12.242900
196  2 -0.6741  0.094082 14.811900  0.217298
197  2 -0.7745  0.947194 15.420000  6.059300
198  2 -0.8069  1.007930 14.917200 12.724200
199  2 -0.8653  6.436400  2.929520 18.237600
200  2 -0.8490  6.326020  2.746960  6.188900
201  2 -0.8779  6.533760  3.033390 12.313700
202  2 -0.7856  6.748080  8.609170 -0.107088
203  2 -0.6763  6.598830  8.912890  5.866040
204  2 -0.7142  6.402480  9.000320 12.588000
205  2 -0.7063  6.408980 14.434900 18.656900
206  2 -0.7137  6.621020 15.462300  6.206720
207  2 -0.8099  6.843320 14.946800 12.322800
208  2 -0.8001 12.523000  2.450320  0.376647
209  2 -0.7532 12.690000  3.111350  6.373990
210  2 -0.8512 12.345200  2.425380 12.835100
211  2 -0.7792 12.309400  8.880270  0.132944
212  2 -0.7183 12.621600  8.890490  6.674040
213  2 -0.7673 12.873800  8.534880 12.438000
214  2 -0.8593 12.460100 14.938300  0.392679
215  2 -0.8549 12.888300 14.963700  6.126840
216  2 -0.6935 12.440900 15.041200 12.074700

