Generated by pymatgen.io.lammps.data.LammpsData

320  atoms

  2  atom types

0.000000 16.864293  xlo xhi
0.000000 23.165087  ylo yhi
0.000000 24.472453  zlo zhi

Masses

1  208.9804
2   78.9600

Atoms

1    1  0.7621  0.961757 11.074400 10.236400
2    1  0.8319  1.320770 11.358000 22.681900
3    1  0.8177  1.440410 22.714400 10.431800
4    1  0.8485  0.981229 23.392000 22.903100
5    1  0.8351  5.098740 11.063100 10.827600
6    1  0.7660  5.628420 11.506600 22.588200
7    1  0.8644  5.462400 22.958500 10.811900
8    1  0.7564  5.550500 22.856700 22.587300
9    1  0.8253  9.477760 10.817100 10.316600
10   1  0.9020  9.953870 11.452000 22.607700
11   1  0.8755  9.503260 22.905300 10.677300
12   1  0.8350  9.352890 22.680000 23.282100
13   1  0.8305 13.988800 10.958700 10.591900
14   1  0.8199 14.149200 11.360200 22.950000
15   1  0.8259 13.813100  0.133272 10.943400
16   1  0.8545 13.825600 22.582700 23.246000
17   1  0.8411  3.623660  0.535358  1.998880
18   1  0.8298  3.230940  0.591642 14.405400
19   1  0.8328  3.216870 12.117100  2.168170
20   1  0.7829  2.916740 12.161300 13.576500
21   1  0.8780  7.603570  0.402329  2.121130
22   1  0.8372  7.109530  0.419008 14.050200
23   1  0.8972  7.898070 12.103700  1.619140
24   1  0.8780  7.275550 11.817400 14.171000
25   1  0.8395 11.830000  0.024699  2.539760
26   1  0.8380 11.792900  0.415505 14.004200
27   1  0.8482 11.679600 11.782300  2.365290
28   1  0.8553 11.605600 11.951200 14.459000
29   1  0.8069 16.232500  0.192764  2.284440
30   1  0.8424 16.148000  0.437557 14.188300
31   1  0.8573 16.141700 12.404700  1.819080
32   1  0.8211 15.597800 12.295400 14.003600
33   1  0.8526  3.068630  5.671570  8.291980
34   1  0.7497  3.378110  5.680830 20.037700
35   1  0.8320  3.413070 16.984000  7.754270
36   1  0.8087  3.187420 17.020900 20.247000
37   1  0.8585  7.657630  5.952050  8.244890
38   1  0.8250  7.017400  5.390830 19.988900
39   1  0.7634  7.461080 16.904500  7.852440
40   1  0.8687  7.470350 17.290000 20.588200
41   1  0.8915 11.818500  5.257580  8.222840
42   1  0.8419 11.515900  5.375250 19.826700
43   1  0.7897 11.865300 16.654200  8.420800
44   1  0.8366 11.293100 16.527600 20.401800
45   1  0.8071 16.051600  5.390780  8.662930
46   1  0.8089 15.266700  5.501680 20.338600
47   1  0.8069 15.760900 17.429000  8.618580
48   1  0.8066 15.608000 16.440400 20.233300
49   1  0.8442  1.234640  5.855900  4.381980
50   1  0.8245  1.353950  6.350200 16.617900
51   1  0.7658  1.626810 18.158500  4.190290
52   1  0.8379  1.075920 17.503100 16.815000
53   1  0.7477  5.609270  6.484600  4.648860
54   1  0.7775  5.222030  6.601910 15.907800
55   1  0.8773  5.760390 17.610500  4.442870
56   1  0.8298  5.344040 17.711400 15.993000
57   1  0.8119  9.763550  5.476220  4.129510
58   1  0.8567  9.325200  6.057590 16.185700
59   1  0.8421  9.865670 17.916800  4.819600
60   1  0.8324  9.517820 18.059400 16.678600
61   1  0.8528 13.735600  6.438720  4.931020
62   1  0.7410 13.627300  6.197190 16.721600
63   1  0.8175 13.860800 17.916400  3.970050
64   1  0.8150 13.543100 17.914100 17.165500
65   1  0.7992  0.963131  1.878900  5.763930
66   1  0.8729  1.045440  1.893180 18.230400
67   1  0.8335  1.329930 13.498700  6.255340
68   1  0.8730  1.382650 13.549500 18.423900
69   1  0.8867  5.445290  2.403350  6.195020
70   1  0.8435  4.824150  1.901550 18.065600
71   1  0.8172  5.338820 13.912400  6.408070
72   1  0.8344  5.570990 13.985000 17.714000
73   1  0.8493  9.689990  2.243590  6.248350
74   1  0.8543  9.543910  1.790530 17.993300
75   1  0.8201  9.946070 13.750200  6.667630
76   1  0.8240  9.606190 13.314800 18.204700
77   1  0.8764 13.807100  1.936710  6.123550
78   1  0.7771 13.522000  1.967200 17.788800
79   1  0.8984 13.800600 13.738500  6.308350
80   1  0.7566 13.513200 13.506600 18.785100
81   1  0.7956  3.262660  9.481410  6.509260
82   1  0.9103  3.258210  9.975760 18.836100
83   1  0.8018  3.270840 21.601700  6.869620
84   1  0.8138  2.669990 21.222900 19.056600
85   1  0.7871  7.678590  9.794570  6.799200
86   1  0.8406  7.510390  9.443450 18.976400
87   1  0.8428  7.827150 21.406100  7.044060
88   1  0.8488  7.123670 21.104600 18.938600
89   1  0.8409 12.003100  9.839400  6.450500
90   1  0.7769 11.577600  9.476340 18.478900
91   1  0.8416 11.597600 21.252000  6.905980
92   1  0.8327 11.731700 21.148700 18.950300
93   1  0.8343 16.059800  9.527290  6.554660
94   1  0.8247 15.807700  9.582460 18.675900
95   1  0.8022 16.063300 21.291300  6.662150
96   1  0.7635 15.762600 21.620700 18.356300
97   1  0.8367  3.449570  7.904060 12.618700
98   1  0.7377  3.341280  8.160740 24.585300
99   1  0.8590  3.399980 19.187900 12.554500
100  1  0.8004  3.517850 19.535300  0.839010
101  1  0.7862  7.931450  7.631010 12.808800
102  1  0.8270  7.949410  8.026640  0.334728
103  1  0.8274  7.708910 19.143700 12.615400
104  1  0.8006  7.589230 19.505500  0.190322
105  1  0.7975 11.767100  7.651170 12.777400
106  1  0.7418 11.651000  7.794730  0.722545
107  1  0.8623 11.847800 19.249100 12.813500
108  1  0.8307 11.732400 19.622900  0.684510
109  1  0.8358 15.775900  7.737400 12.082400
110  1  0.8402 15.784000  8.231400  0.240950
111  1  0.8405 16.032400 19.777600 13.271700
112  1  0.8070 15.848200 19.083400  0.548810
113  1  0.8264  0.601040  3.889850 24.144700
114  1  0.8113  1.168520  3.545460 11.913300
115  1  0.8132  1.157540 15.634700  0.250222
116  1  0.7858  1.246180 15.423900 12.482600
117  1  0.8117  5.304070  3.930460 24.626300
118  1  0.8250  5.465520  3.797030 12.430400
119  1  0.8403  5.134130 15.427800 24.293200
120  1  0.8596  5.301920 15.775200 12.073100
121  1  0.8330  9.826890  3.874660  0.507912
122  1  0.8635  9.574350  4.110720 11.892500
123  1  0.8218  9.762510 15.582000 23.965500
124  1  0.7947  9.656370 15.399100 11.902300
125  1  0.7628 13.690300  3.643250  0.119035
126  1  0.7728 13.589700  3.287950 11.874600
127  1  0.7843 13.699600 15.383700 24.628200
128  1  0.8019 13.945500 15.487900 12.109000
129  2 -0.5156  1.510090  3.455840  8.568730
130  2 -0.4572  0.951396  3.564700 20.922400
131  2 -0.4808  1.029320 15.520800  8.836820
132  2 -0.5269  1.426280 14.964200 20.971700
133  2 -0.4273  5.085450  3.667880  8.652670
134  2 -0.5045  5.162230  3.445130 20.872300
135  2 -0.5766  5.232560 15.139400  8.742750
136  2 -0.4897  5.361370 15.282800 20.999000
137  2 -0.4999  9.261190  3.767590  8.788440
138  2 -0.4095  9.571710  3.421560 20.570300
139  2 -0.6567  9.566730 15.117300  9.063500
140  2 -0.5520  9.259660 15.043900 20.738700
141  2 -0.5851 13.823200  3.502030  8.638650
142  2 -0.5029 13.456900  3.476230 20.771700
143  2 -0.5561 13.913800 14.950500  8.767820
144  2 -0.6360 13.587600 14.905300 21.141500
145  2 -0.4949  3.260990  8.192480  3.608020
146  2 -0.4458  3.082270  8.590280 15.703600
147  2 -0.5214  4.009060 19.757400  3.689570
148  2 -0.4789  3.191270 19.671500 16.078100
149  2 -0.4788  8.138350  8.099810  3.726270
150  2 -0.5870  7.524980  8.144210 15.358900
151  2 -0.4477  7.962960 19.483800  3.959920
152  2 -0.4733  7.343590 19.770800 15.575400
153  2 -0.5586 11.931600  8.418970  4.098420
154  2 -0.5848 11.613200  7.920030 15.712100
155  2 -0.5118 11.645400 19.825800  3.640060
156  2 -0.5515 11.717900 19.836900 16.441600
157  2 -0.4694 15.854200  8.030680  3.877740
158  2 -0.4353 16.097200  8.267390 15.951300
159  2 -0.5370 16.026000 19.735000  3.621310
160  2 -0.5732 15.959700 19.320600 16.119800
161  2 -0.5629  3.259540  9.014990 10.117200
162  2 -0.5979  3.301210  9.602400 21.975900
163  2 -0.5256  3.482190 20.905000  9.864590
164  2 -0.4726  3.288050 21.014700 22.002600
165  2 -0.5680  7.316310  9.225190 10.344800
166  2 -0.5356  7.884320  9.621700 22.396100
167  2 -0.5605  7.370820 21.177000 10.371400
168  2 -0.6017  7.737420 20.878700 22.094400
169  2 -0.5229 11.714400  9.288710 10.134000
170  2 -0.4520 11.618600  9.286200 22.238600
171  2 -0.5048 11.795300 21.267700 10.834300
172  2 -0.5082 11.610100 21.065000 22.627400
173  2 -0.6000 15.908600  9.061890  9.653840
174  2 -0.5228 16.024400  9.446240 22.121100
175  2 -0.4851 15.906100 21.258000 10.041700
176  2 -0.4544 16.209800 21.161300 22.531000
177  2 -0.5169  1.163650  2.122390  2.628950
178  2 -0.5080  1.243610  2.482440 15.095900
179  2 -0.5491  1.467790 13.945100  2.937300
180  2 -0.5148  0.977225 13.903200 14.898100
181  2 -0.5265  5.657130  2.231410  2.754440
182  2 -0.5564  5.186480  2.454990 15.013800
183  2 -0.4585  5.698420 13.828500  2.351300
184  2 -0.5114  5.039180 13.705400 14.452800
185  2 -0.5489  9.526710  2.049640  3.098290
186  2 -0.4577  9.265720  1.848150 15.019700
187  2 -0.4232  9.729600 14.003500  2.423790
188  2 -0.4751  9.057870 13.868000 14.821300
189  2 -0.4779 13.688400  2.289040  2.928040
190  2 -0.5644 13.929400  2.299940 14.685100
191  2 -0.4664 13.743400 13.989000  2.958290
192  2 -0.4674 13.600200 13.932500 15.272900
193  2 -0.5257  1.220750 10.927500  4.970870
194  2 -0.3931  1.137410 10.964200 16.906300
195  2 -0.5885  1.167470 22.322500  4.510840
196  2 -0.6284  1.109020 22.599500 17.114900
197  2 -0.4337  5.736270 10.768800  4.885870
198  2 -0.4263  5.406570 10.978200 17.224400
199  2 -0.4496  5.432610 22.812100  5.117700
200  2 -0.4956  4.985260 22.477400 17.061000
201  2 -0.5056  9.860790 11.091800  4.965170
202  2 -0.5233  9.306270 10.890900 16.768600
203  2 -0.4802  9.516600 22.502800  5.007270
204  2 -0.3965  9.495330 22.003000 17.052900
205  2 -0.4781 13.783400 11.118400  4.669650
206  2 -0.5434 13.588200 10.817700 16.962400
207  2 -0.5017 13.695700 22.411200  5.001620
208  2 -0.5655 13.668800 22.454800 16.654700
209  2 -0.5278  3.526160  0.698896  7.914220
210  2 -0.5758  2.818020  0.894573 19.857900
211  2 -0.5642  3.093490 12.075100  7.880850
212  2 -0.5076  3.649770 12.527300 19.581500
213  2 -0.5094  7.624950  0.561186  8.170380
214  2 -0.5005  7.214620  0.567184 19.762800
215  2 -0.5379  7.393930 12.266300  7.912020
216  2 -0.4788  7.231280 12.200500 19.861100
217  2 -0.5886 11.577800  0.853294  7.544470
218  2 -0.4793 11.566400  0.425700 20.014400
219  2 -0.6228 11.982900 12.415600  7.611130
220  2 -0.6234 11.424700 12.362800 20.110300
221  2 -0.5612 15.813100  0.830463  7.761600
222  2 -0.4975 15.743300  0.938189 19.858200
223  2 -0.5290 15.737000 12.076100  7.710460
224  2 -0.5554 16.686000 11.783400 20.083000
225  2 -0.4401  3.153690  4.923600  2.107760
226  2 -0.5381  3.372540  5.164030 13.763600
227  2 -0.5460  3.624000 16.823300  1.853100
228  2 -0.5983  3.496960 16.708200 13.923400
229  2 -0.5425  7.764970  5.150400  1.890790
230  2 -0.5794  7.838110  4.672560 14.070400
231  2 -0.4420  7.343920 16.973000  1.586710
232  2 -0.5893  7.038380 16.578700 13.942700
233  2 -0.6180 11.544500  4.778560  2.220360
234  2 -0.4955 11.490300  4.318670 13.940300
235  2 -0.5305 11.587000 16.890300  1.695070
236  2 -0.5675 11.543000 16.512300 13.543700
237  2 -0.4849 16.091900  5.320710  1.604970
238  2 -0.4210 16.039900  5.084620 14.000500
239  2 -0.6229 15.788700 16.743500  1.921830
240  2 -0.4931 15.717000 16.821900 13.874600
241  2 -0.5451  1.221100  6.312470 10.924200
242  2 -0.4890  0.720319  6.525770 22.867200
243  2 -0.5183  1.180210 18.349500 11.341500
244  2 -0.4575  1.342070 17.917400 23.103800
245  2 -0.5147  5.824800  6.425670 10.963300
246  2 -0.5080  5.608570  6.771180 22.976000
247  2 -0.5553  5.537990 18.351700 11.035200
248  2 -0.5418  5.690590 18.006600 23.018900
249  2 -0.5929  9.889000  6.434310 10.748100
250  2 -0.5048  9.608170  6.254990 23.395000
251  2 -0.5058 10.048900 18.444900 10.769400
252  2 -0.5447  9.647130 18.006100 22.555300
253  2 -0.5748 13.743500  6.172300 10.862700
254  2 -0.5113 13.680300  6.758140 23.424200
255  2 -0.5375 13.593800 18.221900 10.940900
256  2 -0.4853 13.470100 18.190500 23.247100
257  2 -0.6194  0.978065 10.407100  1.055780
258  2 -0.6028  0.818853  9.829780 12.806900
259  2 -0.5676  1.361090 21.506000  0.840749
260  2 -0.6466  1.195000 21.922200 13.171500
261  2 -0.5677  5.730850 10.116600  1.140370
262  2 -0.6103  5.165730 10.004600 13.466300
263  2 -0.6644  5.691750 21.929800  0.848013
264  2 -0.5952  5.442070 21.576100 13.322400
265  2 -0.6628  9.619820 10.448200  0.665037
266  2 -0.5703  9.748540 10.195700 13.277300
267  2 -0.6445  9.434850 21.648600  1.388820
268  2 -0.5190  9.663990 21.628200 13.484500
269  2 -0.6356 14.167200 10.567200  0.959773
270  2 -0.5707 13.701800 10.078000 13.327200
271  2 -0.6634 13.883100 21.470100  1.185910
272  2 -0.6044 13.848700 21.758000 13.467200
273  2 -0.6673  3.512730  1.594190 11.748700
274  2 -0.6114  3.104810  1.794550 24.105300
275  2 -0.5814  3.379310 13.607200 11.145500
276  2 -0.6440  3.137390 13.500800 24.165200
277  2 -0.6061  7.627070  1.731820 11.384500
278  2 -0.5811  7.442260  2.101440 24.016600
279  2 -0.5176  7.205370 12.870300 11.481100
280  2 -0.6093  8.131510 13.324900 23.523200
281  2 -0.6842 11.238700  1.717570 11.392900
282  2 -0.5949 11.509900  1.029680 24.190600
283  2 -0.5304 11.849600 12.862900 11.621100
284  2 -0.6061 11.957400 13.128600 23.978700
285  2 -0.7203 15.921500  1.412570 11.661300
286  2 -0.6847 15.786100  1.765060 24.025600
287  2 -0.6661 15.802700 13.223100 11.444500
288  2 -0.6528 16.220700 13.549300 23.728300
289  2 -0.5853  3.514220  4.126140  5.562280
290  2 -0.6046  3.200000  4.489640 17.360700
291  2 -0.6469  3.499630 15.860600  5.305580
292  2 -0.5962  2.952890 15.391400 17.122300
293  2 -0.6434  7.653290  4.315050  5.889280
294  2 -0.5140  7.133590  3.964100 17.633600
295  2 -0.6125  7.606940 15.620200  5.251180
296  2 -0.5713  7.482780 16.180800 17.753600
297  2 -0.6288 11.973900  4.304820  5.619710
298  2 -0.6417 10.995700  4.334670 17.399700
299  2 -0.6526 11.791800 15.907900  5.739610
300  2 -0.6365 11.415100 15.589700 17.742500
301  2 -0.5525 16.076800  3.963180  5.311140
302  2 -0.5990 15.638800  3.930210 18.125100
303  2 -0.4658 15.998500 15.929100  5.641370
304  2 -0.6218 16.104500 15.837200 17.569600
305  2 -0.6529  0.855451  7.121610  7.063870
306  2 -0.6047  1.457440  8.013560 19.054800
307  2 -0.5869  1.251990 19.053800  7.326660
308  2 -0.5412  0.905339 19.010600 19.686900
309  2 -0.6401  5.200180  7.724920  7.396140
310  2 -0.6573  5.456490  7.717970 18.862500
311  2 -0.6274  5.515770 18.806900  6.822580
312  2 -0.5818  5.327590 18.726000 19.104600
313  2 -0.5741  9.934450  7.173350  7.342610
314  2 -0.6210  9.302100  7.216220 18.850000
315  2 -0.6502  9.629740 19.089700  7.420430
316  2 -0.5832  9.321480 19.267500 19.032900
317  2 -0.5802 13.838700  7.388090  7.448690
318  2 -0.7127 13.429300  7.376080 19.408000
319  2 -0.5604 13.670600 19.512000  6.846090
320  2 -0.6076 13.628400 18.509900 19.657500

