Generated by pymatgen.io.lammps.data.LammpsData

216  atoms

  2  atom types

0.000000 18.252355  xlo xhi
0.000000 17.981665  ylo yhi
0.000000 18.233787  zlo zhi

Masses

1  208.9804
2   78.9600

Atoms

1    1  0.8125 -0.244777 18.144000 18.209100
2    1  0.7995 -0.084646 17.966400  5.989870
3    1  0.7676 -0.123370 17.943900 12.076600
4    1  0.7806  0.078258  6.210990 18.055500
5    1  0.7780  0.072724  6.098490  5.876770
6    1  0.8037 -0.041953  6.050240 12.054500
7    1  0.8024 -0.097551 12.232200  0.000280
8    1  0.8013 -0.164179 11.908400  6.008460
9    1  0.7948 -0.001136 12.071900 11.982600
10   1  0.7951  5.938190 18.017700 18.156200
11   1  0.7824  5.997210 18.111200  5.920720
12   1  0.7865  6.025930 18.174000 12.107100
13   1  0.7762  6.161620  6.085750 -0.142654
14   1  0.8152  6.170080  6.094300  6.058220
15   1  0.7850  5.910190  6.100830 11.940000
16   1  0.8281  5.865160 12.200000  0.063325
17   1  0.7803  6.050410 12.085900  6.013420
18   1  0.8044  6.137660 12.053100 12.225200
19   1  0.7752 12.075300 18.094300 -0.150865
20   1  0.7982 12.093600 18.250100  5.944440
21   1  0.8098 12.069500 18.006000 12.037400
22   1  0.7941 12.120800  6.230190  0.076905
23   1  0.7870 12.114200  6.198880  6.115990
24   1  0.8143 12.038800  6.087240 12.071700
25   1  0.7916 12.052200 12.264200  0.028269
26   1  0.7946 12.104300 12.224000  5.906040
27   1  0.7810 12.009100 12.081900 12.108200
28   1  0.7777  0.117238  3.103260  3.123990
29   1  0.7943  0.057156  3.214630  9.210830
30   1  0.8153 -0.006372  3.136520 15.334000
31   1  0.8051  0.079849  9.025860  3.123700
32   1  0.7894 -0.164582  9.139410  9.154010
33   1  0.7900 -0.144211  9.153800 15.212300
34   1  0.8115  0.019558 15.031600  3.033520
35   1  0.7806 -0.242298 15.043500  9.216190
36   1  0.7822 -0.020457 15.157200 15.307600
37   1  0.7900  5.965270  3.070350  2.964780
38   1  0.7958  6.068880  3.249470  9.216170
39   1  0.8181  6.031790  3.169060 15.207300
40   1  0.7868  5.956050  9.171700  2.948140
41   1  0.7691  6.104120  9.282690  9.231820
42   1  0.8103  6.011270  9.251520 15.233400
43   1  0.8243  6.025660 14.926300  3.005630
44   1  0.7854  6.035330 15.215000  9.107790
45   1  0.7789  6.112890 15.104300 15.256000
46   1  0.7923 12.172100  3.146370  3.219310
47   1  0.8123 12.153200  3.170430  9.105420
48   1  0.7984 12.171100  3.137190 15.232400
49   1  0.8261 12.124200  9.036980  3.104120
50   1  0.7808 12.188200  9.329740  9.045560
51   1  0.7678 12.278500  9.204700 15.363800
52   1  0.7545 12.152300 14.989800  3.070270
53   1  0.8141 12.230900 15.204600  9.020290
54   1  0.8002 12.191300 15.247400 15.377100
55   1  0.8193  3.070070 18.048100  3.028340
56   1  0.7990  3.192620 18.163400  9.111470
57   1  0.7799  3.095910 18.219400 15.295700
58   1  0.7805  3.137750  5.966080  3.112850
59   1  0.7971  2.985890  6.113910  9.084290
60   1  0.7776  3.199780  6.128470 15.125700
61   1  0.7858  3.061830 12.075100  2.990920
62   1  0.7906  3.046650 12.120200  9.054350
63   1  0.7947  3.038250 12.236000 15.064400
64   1  0.7936  9.192070 17.996700  3.010810
65   1  0.7883  9.236740 18.259500  9.183240
66   1  0.7931  9.118790  0.016312 15.280600
67   1  0.8088  9.159160  6.024950  3.099180
68   1  0.7923  9.099860  6.220350  9.052220
69   1  0.8168  9.131300  6.247530 15.081600
70   1  0.7911  8.999720 12.002600  2.970910
71   1  0.8028  9.357320 12.178700  9.134360
72   1  0.7822  9.190960 12.139400 15.258500
73   1  0.7981 15.246400 18.065800  3.163260
74   1  0.7877 15.130100 18.135800  9.218280
75   1  0.7746 15.257100 18.143300 15.267500
76   1  0.7724 15.227500  6.133230  3.095870
77   1  0.8026 15.065500  6.125680  9.094590
78   1  0.7918 15.179700  6.158390 15.102200
79   1  0.8120 15.021500 12.045900  3.003760
80   1  0.7963 15.237700 12.165000  9.200890
81   1  0.8117 15.067000 12.049200 15.075800
82   1  0.7688  3.074740  3.263910  0.028008
83   1  0.7980  3.052880  3.119910  6.032030
84   1  0.7855  2.852190  2.918380 12.198200
85   1  0.8033  2.988920  9.215270  0.142965
86   1  0.8108  3.185280  9.203890  6.010300
87   1  0.7827  3.207220  9.038110 12.107600
88   1  0.7800  3.052810 15.331500 -0.105858
89   1  0.7939  3.154420 15.065700  6.160740
90   1  0.7902  3.221500 15.016700 12.172300
91   1  0.8191  9.233660  3.045360  0.107519
92   1  0.7899  9.098320  3.067640  6.222680
93   1  0.7939  9.229550  3.108650 12.150400
94   1  0.7833  9.283020  9.020980 -0.137050
95   1  0.8090  9.151970  9.039380  6.154420
96   1  0.7846  9.181980  9.138000 12.249200
97   1  0.7861  9.082670 15.014900  0.060084
98   1  0.8085  9.147510 15.060300  6.093840
99   1  0.8139  9.249380 15.066700 12.216600
100  1  0.8098 15.197100  3.163800  0.003231
101  1  0.7898 15.357100  3.169020  6.139420
102  1  0.7841 15.179000  3.030020 12.144800
103  1  0.7954 15.186500  9.153350  0.032835
104  1  0.7902 15.208300  8.956650  5.958730
105  1  0.7918 15.262500  9.020170 12.291700
106  1  0.7866 15.204800 15.263400  0.122170
107  1  0.7904 15.185700 15.065200  6.034630
108  1  0.8131 15.207400 14.961700 12.288100
109  2 -0.8069  3.005870  0.153942  0.086670
110  2 -0.7878  3.086730 18.066200  6.018670
111  2 -0.7891  3.046860 17.923000 12.010900
112  2 -0.8007  3.258490  6.236840 -0.039580
113  2 -0.7960  3.142440  6.057780  5.931950
114  2 -0.7979  3.035790  6.024270 12.083600
115  2 -0.7876  2.965950 12.170100 -0.097065
116  2 -0.7952  2.925210 12.057100  6.070040
117  2 -0.7991  3.123860 12.113500 12.143500
118  2 -0.7942  9.012460  0.026291  0.025531
119  2 -0.7809  9.137110 18.084800  6.033590
120  2 -0.7986  9.271440 18.003200 12.119500
121  2 -0.7843  9.294570  6.032650 -0.024560
122  2 -0.8147  9.091640  6.208360  6.088710
123  2 -0.7838  9.142610  6.137050 12.223700
124  2 -0.7940  9.042870 12.056300 -0.016150
125  2 -0.7806  9.137880 12.022900  6.048340
126  2 -0.8212  9.218490 12.203600 12.094600
127  2 -0.8167 15.122700  0.258357  0.014323
128  2 -0.7829 15.211000  0.141585  6.115020
129  2 -0.8018 15.066000 18.030600 12.165600
130  2 -0.7702 15.362600  6.111640 -0.045058
131  2 -0.8262 15.325700  6.166980  6.103050
132  2 -0.7850 15.191200  6.087300 12.080000
133  2 -0.7621 15.157900 12.142700  0.011988
134  2 -0.7866 15.105600 12.065400  5.922080
135  2 -0.8017 15.242900 12.084200 12.047200
136  2 -0.8395  3.100530  3.002680  3.057780
137  2 -0.7918  3.093490  3.168360  9.140450
138  2 -0.8115  3.139430  3.167850 15.252500
139  2 -0.8246  3.104450  9.181800  3.156460
140  2 -0.7805  3.007400  9.168130  9.164670
141  2 -0.7514  3.030930  9.154060 15.221500
142  2 -0.7883  3.083110 15.125600  3.187740
143  2 -0.7773  3.017140 15.103400  9.174200
144  2 -0.8174  3.038300 15.183300 15.268900
145  2 -0.7747  9.209770  3.044750  2.959360
146  2 -0.8155  9.135770  3.205880  9.163820
147  2 -0.7441  9.117190  3.150760 15.215900
148  2 -0.7622  9.161220  9.001880  3.081300
149  2 -0.8045  9.121800  9.207250  9.146630
150  2 -0.8169  9.208940  9.127430 15.211500
151  2 -0.7967  8.993060 14.931500  3.184780
152  2 -0.7648  9.230780 15.095400  9.031320
153  2 -0.8059  9.136510 15.206900 15.257300
154  2 -0.7780 15.181900  3.088000  3.200900
155  2 -0.7972 15.189600  3.139260  9.068150
156  2 -0.7818 15.245300  3.141030 15.213400
157  2 -0.7961 15.222300  9.056670  3.058610
158  2 -0.7857 15.151800  9.097460  9.233870
159  2 -0.8475 15.142300  9.163190 15.272000
160  2 -0.8028 15.261600 15.080700  3.044540
161  2 -0.8109 15.104100 15.114300  9.213830
162  2 -0.7820 15.290900 15.031800 15.254300
163  2 -0.7823 18.182300 18.095500  3.033340
164  2 -0.7610 18.259700  0.103699  9.138550
165  2 -0.8007  0.059041 18.244000 15.327800
166  2 -0.8099 18.335700  6.104740  3.000850
167  2 -0.7877 18.303400  6.032930  9.125280
168  2 -0.7823 -0.083377  6.118640 15.064700
169  2 -0.7699 18.173700 12.049500  2.901080
170  2 -0.8098 18.210900 12.091100  9.058470
171  2 -0.7578 -0.116799 12.106100 15.164900
172  2 -0.7722  6.033290 -0.101003  2.992560
173  2 -0.8019  6.069580  0.215802  9.096440
174  2 -0.7977  6.060210  0.270365 15.040200
175  2 -0.7786  6.149190  6.010260  2.961270
176  2 -0.8136  6.063830  6.092530  9.083180
177  2 -0.7917  6.173830  6.152300 15.146300
178  2 -0.8483  5.952330 12.143200  2.882680
179  2 -0.7658  6.135090 12.171200  9.083440
180  2 -0.7898  6.058130 12.105500 15.215200
181  2 -0.7868 12.162100 18.130100  3.037710
182  2 -0.8141 12.100600 18.123700  9.119460
183  2 -0.8082 12.187900 18.175800 15.145600
184  2 -0.8125 12.106400  6.202080  3.057270
185  2 -0.7985 12.108100  6.057880  9.069440
186  2 -0.7767 12.160900  6.060600 15.149500
187  2 -0.8207 12.144400 11.961600  2.951920
188  2 -0.8090 12.252000 12.274200  8.956100
189  2 -0.8010 12.204900 12.208200 15.221300
190  2 -0.7836 18.144000  3.152010 -0.045370
191  2 -0.7916 18.352200  3.006660  6.141310
192  2 -0.7976 18.223200  3.083190 12.254900
193  2 -0.7776 18.318600  9.142140  0.140332
194  2 -0.8000  0.012604  9.097840  6.091560
195  2 -0.7846 18.203800  9.089170 12.227800
196  2 -0.8111 18.127900 15.270300  0.095950
197  2 -0.7675 18.130000 15.030000  5.954570
198  2 -0.7904 18.117300 15.004400 12.176300
199  2 -0.7863  6.120060  3.009600 -0.013660
200  2 -0.7884  6.123360  3.241230  5.997440
201  2 -0.7791  6.002970  3.097520 12.164300
202  2 -0.7708  5.995430  9.305530 -0.088345
203  2 -0.7909  6.029600  9.174270  6.025070
204  2 -0.8274  6.053050  9.189300 12.228700
205  2 -0.8243  6.033450 15.071500  0.033828
206  2 -0.7883  6.090990 15.063000  6.168990
207  2 -0.7813  6.213770 14.979400 12.250000
208  2 -0.7737 12.085700  3.236260  0.003501
209  2 -0.8118 12.005900  3.194670  6.146820
210  2 -0.7933 12.104800  3.138010 12.054400
211  2 -0.8149 12.187800  9.163220  0.124179
212  2 -0.8038 12.152800  9.127840  6.084350
213  2 -0.7835 12.135700  9.020140 12.153300
214  2 -0.8407 12.062700 15.178000  0.052860
215  2 -0.8057 12.226800 15.210700  6.093210
216  2 -0.7723 12.196400 15.007400 12.385600

