Generated by pymatgen.io.lammps.data.LammpsData

320  atoms

  2  atom types

0.000000 24.637781  xlo xhi
0.000000 17.058433  ylo yhi
0.000000 27.370788  zlo zhi

Masses

1  208.9804
2   78.9600

Atoms

1    1  0.7084 -1.407420 17.587300  0.732525
2    1  0.6846 22.237900  1.573610 13.982100
3    1  0.7699 -1.273530  9.762690  0.394016
4    1  0.6778 21.354300 10.234600 14.167900
5    1  0.6899 10.843400 17.958000 27.234200
6    1  0.6178  8.794140 18.248100 13.506500
7    1  0.7358 10.947500  9.379020 27.218100
8    1  0.6663  9.245020  9.177080 13.708200
9    1  0.7571  3.584930  5.550750  8.822080
10   1  0.8856  4.541570  5.431500 22.992900
11   1  0.7638  2.939590 14.008700  9.355500
12   1  0.8835  5.087020 13.713400 23.395200
13   1  0.7402 15.910800  5.290710 10.550200
14   1  0.7441 17.594200  5.821870 23.258400
15   1  0.7127 15.046400 13.752600 10.059100
16   1  0.8001 17.599600 13.592100 23.492100
17   1  0.6060  3.938990  5.615440  5.272560
18   1  0.7044  5.074870  5.756860 18.810000
19   1  0.6208  4.051200 14.185800  5.286030
20   1  0.7325  4.587930 13.698800 18.977700
21   1  0.6799 15.437700  5.137420  4.782000
22   1  0.6784 17.475300  5.360850 18.968800
23   1  0.6641 15.530600 13.591900  5.591770
24   1  0.5791 16.982300 13.820200 18.722000
25   1  0.7884 21.696100 18.094100  9.781220
26   1  0.6301 -1.179250 18.090000 23.028600
27   1  0.7280 21.577000 10.093300  9.960530
28   1  0.7796 -1.258550 10.196300 23.625300
29   1  0.7126  9.028550 18.164000  9.700750
30   1  0.6984 11.037000 17.852600 22.167800
31   1  0.8031  9.346370 10.036300  9.397690
32   1  0.7219 11.317100  9.856080 22.611400
33   1  0.7681 -0.450241  4.931490  0.954116
34   1  0.6812 21.765000  5.321160 14.640200
35   1  0.7467 -1.537580 14.154000  1.027710
36   1  0.7448 22.010300 14.330600 13.726800
37   1  0.6596 10.848600  4.675430  0.279208
38   1  0.5894  9.522770  5.294870 13.614300
39   1  0.6998 11.193500 14.182200 27.109000
40   1  0.7066  9.187490 13.647300 14.087600
41   1  0.7927 22.128700  4.899460  9.219770
42   1  0.7036 -1.180510  5.315670 23.357600
43   1  0.7513 21.538900 13.381400  9.725040
44   1  0.7628 -1.298480 13.821500 24.037000
45   1  0.7995  9.922110  5.801220  9.194130
46   1  0.6873 10.542600  5.667000 23.070800
47   1  0.7255  9.036000 13.734800  9.755920
48   1  0.6612 10.963800 14.030000 23.158100
49   1  0.7114  3.843750  1.611610  4.758990
50   1  0.6595  4.839050 17.873800 18.920700
51   1  0.7338  2.871910 10.394000  5.709040
52   1  0.7158  4.515460  9.679050 19.884700
53   1  0.7910 15.909200 17.491000  5.826270
54   1  0.6712 17.710800 17.330900 18.717700
55   1  0.6570 15.333600  9.109390  5.011580
56   1  0.6611 16.896600  9.810650 18.924600
57   1  0.8762  3.118700  1.727490  9.227270
58   1  0.8570  4.790130 18.463200 23.496400
59   1  0.7328  2.966860  9.745000  9.749520
60   1  0.7331  4.725050  9.528820 23.328800
61   1  0.6832 15.672600 17.974000 10.432900
62   1  0.8039 17.109200  1.428470 23.978500
63   1  0.8010 15.853300  9.639260 10.471400
64   1  0.7602 17.313900  9.730620 23.579300
65   1  0.7679  1.788620  7.384920 25.676000
66   1  0.7370 -0.085019  7.407780 11.573500
67   1  0.6405  2.311400 16.650400 26.092100
68   1  0.7878  0.285703 16.370800 11.566400
69   1  0.8039 13.705200  7.781260 25.068900
70   1  0.7445 12.271300  7.605190 11.888000
71   1  0.7322 14.255300 15.574100 25.426900
72   1  0.7416 11.543300 16.145400 11.611600
73   1  0.6840  7.755280  7.519120 25.245800
74   1  0.6985  6.387240  7.675480 12.019100
75   1  0.8304  8.020760 16.126400 24.967300
76   1  0.7662  5.892070 16.555000 11.355800
77   1  0.7569 20.644100  7.851260 25.385600
78   1  0.7893 18.888800  8.134780 12.130200
79   1  0.7819 20.186900 16.359800 26.326600
80   1  0.7067 18.864300 16.690600 11.949200
81   1  0.6571  1.091330  3.230680 25.398400
82   1  0.7827  0.718109  3.660040 11.755800
83   1  0.7382  2.170470 12.084600 26.568000
84   1  0.6945 -0.440412 11.608100 12.008200
85   1  0.7308 13.928400  2.826450 25.723300
86   1  0.7395 12.419900  3.474770 11.566400
87   1  0.6985 13.958500 11.915300 25.542600
88   1  0.7929 11.855200 11.827400 11.337600
89   1  0.8516  7.862890  3.495350 25.295600
90   1  0.6298  6.971100  3.990890 11.660400
91   1  0.8545  8.381810 11.903500 25.467700
92   1  0.7133  6.013550 11.950100 11.826500
93   1  0.6968 20.345500  3.578370 26.173400
94   1  0.7046 19.020800  3.559980 11.623300
95   1  0.7301 20.065700 12.136800 25.737600
96   1  0.7980 18.273500 12.212500 11.862900
97   1  0.7800 -0.066406  7.493080  7.378640
98   1  0.7957  1.480850  7.331360 20.864300
99   1  0.8889 -0.361408 16.369400  7.392030
100  1  0.7178  2.394720 16.103000 21.547900
101  1  0.8247 12.760000  7.756460  7.642200
102  1  0.7500 14.496200  7.890690 21.092700
103  1  0.7206 12.437100 16.148400  6.788340
104  1  0.8064 14.331700 15.975100 21.656700
105  1  0.6850  6.104590  8.395760  7.771680
106  1  0.7180  8.213240  7.408000 20.871600
107  1  0.7421  6.153080 16.202400  7.851590
108  1  0.6863  7.923060 16.100100 20.050800
109  1  0.7862 18.434500  7.277650  7.384860
110  1  0.8103 20.293900  7.453840 21.447600
111  1  0.8138 18.880400 15.468600  7.653350
112  1  0.7862 20.178500 15.956600 21.544800
113  1  0.8007  0.425435  3.544360  6.750070
114  1  0.7583  1.897920  2.937960 21.121200
115  1  0.7413 -0.639911 12.277900  6.222640
116  1  0.8142  1.816380 11.987300 21.641700
117  1  0.8116 13.141500  3.783290  7.776820
118  1  0.7595 14.695600  3.387760 21.528500
119  1  0.6890 12.561500 12.549600  7.601520
120  1  0.7197 14.296900 11.991000 21.120500
121  1  0.6589  6.672750  3.733790  7.046830
122  1  0.7521  7.696300  3.469260 20.872400
123  1  0.6977  6.634380 12.101700  7.843180
124  1  0.6688  7.634260 12.315800 20.927400
125  1  0.7102 18.593400  3.390490  7.481500
126  1  0.7911 20.310900  2.918260 21.710500
127  1  0.7746 17.860300 11.823500  8.052600
128  1  0.8095 20.513400 12.173600 21.320600
129  2 -0.7601  6.768600  5.472690  9.267730
130  2 -0.8248  7.664170  5.401070 22.797500
131  2 -0.8458  5.942530 14.191900  9.709580
132  2 -0.7998  7.969840 13.787000 23.334800
133  2 -0.6960 18.824400  5.700990  9.718230
134  2 -0.8017 20.435000  5.485070 23.743400
135  2 -0.8028 18.809700 13.886600  9.949320
136  2 -0.8210 20.278000 13.970300 23.558500
137  2 -0.7407  0.352058  5.450170  9.409290
138  2 -0.7538  1.635050  5.159450 22.816000
139  2 -0.6848 -0.122526 14.456500  9.113700
140  2 -0.6930  2.665520 13.702900 23.738900
141  2 -0.8219 12.620900  5.525680  9.636030
142  2 -0.6663 14.478100  5.400150 23.278500
143  2 -0.8334 12.035700 14.300600  9.713550
144  2 -0.8362 14.289200 13.883300 23.274100
145  2 -0.2294 14.094100  3.136670  2.665050
146  2 -0.0617 -1.408570  5.194910 18.083500
147  2 -0.0696 16.722700 10.471400  2.059500
148  2 -0.0624 -2.237370 12.356400 16.985100
149  2 -0.1562  8.732740  4.855930  4.320270
150  2  0.0483 13.551500  3.350590 17.027800
151  2 -0.1771  3.969740 10.592300  1.973520
152  2 -0.1127 10.863000 13.248100 17.243300
153  2  0.0382 20.702700  9.504520  3.624820
154  2 -0.2302 22.027200  7.963720 16.856800
155  2 -0.3350 19.440400 14.388700  0.631134
156  2 -0.1738  4.537950  2.539830 14.755000
157  2  0.0570  9.341630 11.838300  3.839150
158  2 -0.1751 16.004700  8.411850 16.348600
159  2 -0.1086 10.111000 17.558700  3.027070
160  2  0.0154 10.514200  1.927320 17.494200
161  2 -0.8020  5.880720  1.146460  9.286280
162  2 -0.7155  7.380480  1.472200 23.497900
163  2 -0.8255  6.344630  9.727830  9.956170
164  2 -0.7283  8.164210  9.740960 22.967400
165  2 -0.7850 19.042300  1.205560  9.534770
166  2 -0.7495 20.364500 18.113800 23.964400
167  2 -0.7425 18.530700  9.638380  9.679770
168  2 -0.7664 20.166300  9.649770 23.543900
169  2 -0.6847  0.440563  1.187880  9.265220
170  2 -0.8771  2.287730 18.325500 23.364500
171  2 -0.7259 -0.283476  9.943880  9.507910
172  2 -0.6866  1.851500  9.614660 23.584600
173  2 -0.6064 12.521800 18.290000  9.518810
174  2 -0.7476 14.164700 18.002300 23.588700
175  2 -0.6879 12.717200  9.503050  9.682540
176  2 -0.8335 14.027600  9.814880 22.881400
177  2 -0.0086 10.048800  3.065420  3.847790
178  2 -0.0951  0.130675  3.758070 17.606100
179  2 -0.0714  5.579890 12.124000  2.199980
180  2 -0.1463 21.791400 16.145900 16.753600
181  2 -0.0726 17.305900  3.012180  2.361400
182  2 -0.0603 14.906600  4.021720 15.858600
183  2  0.0328 17.922800 12.132800  2.653770
184  2 -0.0158 11.678600 11.355300 16.855600
185  2 -0.0120  9.165250  9.512440  3.585360
186  2  0.0242  3.125360  9.132540 15.573000
187  2  0.0118  7.150140 16.642300  2.525520
188  2 -0.0388  2.806160  3.492660 15.654900
189  2 -0.0508 21.463900  7.897500  4.492120
190  2 -0.0733 11.043600  5.925140 16.563000
191  2 -0.1817 16.663400 15.417600  2.893840
192  2  0.0016 11.279600 16.980300 17.581700
193  2 -0.2329  4.739560  3.983690  2.429430
194  2 -0.1660  2.036050  6.394860 17.473600
195  2 -0.4037  0.678573 14.653300  4.759970
196  2 -0.3890  1.671210 13.614400 19.549900
197  2 -0.4190 12.391100  6.129160  5.299640
198  2 -0.3220 14.142400  6.295630 18.896700
199  2 -0.2584 11.478000 13.945600  4.550010
200  2 -0.4553 14.332000 14.427800 19.041200
201  2 -0.4639  0.699987  5.671350  4.793290
202  2 -0.3644  8.513190  5.334220 19.041400
203  2 -0.1842  5.039710 16.389100  2.001260
204  2 -0.6207  7.219930 13.578900 18.515200
205  2 -0.4338 17.953400  5.967890  4.722790
206  2 -0.4357 20.337600  4.654570 19.620400
207  2 -0.4290 18.369300 12.975700  5.722250
208  2 -0.4347 20.677000 14.141300 19.488200
209  2 -0.6746 21.812200  6.751100 11.835900
210  2 -0.7793 -1.189240  8.171270 25.640800
211  2 -0.8412 22.045000 16.481700 11.768500
212  2 -0.8308 -1.680930 15.819300 26.168000
213  2 -0.8900  9.456750  7.831810 11.472100
214  2 -0.8529 10.943700  7.965770 25.172400
215  2 -0.9107  8.771280 16.074700 11.616800
216  2 -0.8792 11.039900 16.203100 24.957500
217  2 -0.8062 22.088200  3.496350 11.447800
218  2 -0.8991 -1.174020  3.150060 26.723200
219  2 -0.9601 21.444600 11.889400 12.098300
220  2 -0.8412 -1.208540 12.018800 25.884900
221  2 -0.8845  9.858130  3.517490 11.062200
222  2 -0.8161 10.595400  3.328770 24.984300
223  2 -0.8901  9.135410 11.761500 11.485400
224  2 -0.8826 11.087400 11.999400 25.097100
225  2 -0.5068  0.742771 15.597400  1.457740
226  2 -0.4822  0.514388  1.650200 13.665500
227  2 -0.3725  0.669917  7.733160  1.505750
228  2 -0.2630 -0.262138 10.259100 14.846600
229  2 -0.4636 13.590200 16.733700  0.790486
230  2 -0.3613 11.857300 18.307600 14.078400
231  2 -0.3966 13.810500  8.925100  0.466225
232  2 -0.5091 11.969400  9.807890 13.180400
233  2 -0.4188  8.056210 17.981600 -0.434402
234  2 -0.4626  8.276420  3.421090 15.099200
235  2 -0.4183  7.896800 10.079900 -0.103408
236  2 -0.4242  6.765130  7.135360 14.679800
237  2 -0.3696 20.434600 18.121600  1.346770
238  2 -0.4254 19.446600 18.108000 14.732300
239  2 -0.3670 19.737000  9.968750  0.012437
240  2 -0.6034 18.575300 10.054700 13.704100
241  2 -0.8260  3.241750  7.836390  7.406750
242  2 -0.8907  4.283260  7.432550 21.293300
243  2 -0.6743  3.403100 16.330200  6.880270
244  2 -0.8385  5.153410 15.930100 21.180100
245  2 -0.7721 15.472300  7.074480  7.925830
246  2 -0.8653 17.574900  7.817810 21.178900
247  2 -0.8876 15.754600 15.638800  7.444620
248  2 -0.7407 17.249500 16.013100 21.889200
249  2 -0.8936  3.031350  3.508750  6.936190
250  2 -0.8279  4.440220  3.286330 21.085000
251  2 -0.8561  3.138050 11.759200  7.695970
252  2 -0.8829  4.511770 12.047100 21.294600
253  2 -0.7725 15.855900  2.760450  7.364720
254  2 -0.8121 17.452200  3.205970 22.058100
255  2 -0.8851 15.146000 11.799100  7.878820
256  2 -0.8228 17.242500 11.913900 21.311200
257  2 -0.4141  8.142730  4.684870  0.554497
258  2 -0.0605 11.815800  7.922980 16.233000
259  2 -0.4093  8.588520 13.716800  0.023589
260  2 -0.4436  6.293030 14.297100 14.393900
261  2 -0.2828 20.913300  5.700430  1.275030
262  2 -0.4566 18.578900  5.149650 13.615900
263  2 -0.2063 21.576300 12.565300  3.590030
264  2 -0.4557 18.751500 14.373800 13.940000
265  2 -0.4692  2.148310  4.761330  0.036708
266  2 -0.3788  0.308550  6.128230 13.908500
267  2 -0.4368  0.441990 11.675500  1.863530
268  2 -0.4633  0.129032 13.618800 13.539200
269  2 -0.4224 13.775500  4.936910  0.121817
270  2 -0.3443 18.132500  2.852250 17.541200
271  2 -0.3655 12.811400 12.474800  1.618170
272  2 -0.3551 11.835400 13.717600 13.800300
273  2 -0.5036 22.137500  3.296460  6.965380
274  2 -0.5351 -1.340640  3.625150 21.296100
275  2 -0.5198 21.054200 11.504900  7.815450
276  2 -0.4065 -1.221740 12.303500 21.355200
277  2 -0.3686 10.006600  3.477250  7.544050
278  2 -0.3454 11.669100  3.420710 20.587900
279  2 -0.5692  9.161990 12.220900  7.474540
280  2 -0.4935  6.343230  8.597730 18.293700
281  2 -0.4681 21.609000  7.487120  8.032630
282  2 -0.5595 -1.389770  8.061650 22.384300
283  2 -0.5899 21.511300 15.922700  8.050050
284  2 -0.5218 -0.636105 15.553000 22.068400
285  2 -0.4377  9.701720  8.230530  7.360570
286  2 -0.5361 11.374700  7.814550 21.069200
287  2 -0.4398  8.944190 16.117700  7.096300
288  2 -0.5436 10.766500 15.813400 20.501000
289  2 -0.3494  6.942650  1.533580  5.066450
290  2 -0.5129  7.474960  1.759250 18.625500
291  2 -0.4473  6.515440 10.598000  5.619550
292  2 -0.1536  4.900080 10.114700 15.361400
293  2 -0.3461 19.060100 18.005400  5.725490
294  2 -0.3981 20.619400 17.749300 19.544900
295  2 -0.3218 18.047200  9.445700  5.205780
296  2 -0.3940 20.333800  9.959290 19.447900
297  2 -0.4317  0.506128 17.967200  5.330090
298  2 -0.3599  1.991340 17.727100 18.480300
299  2 -0.4093  0.053375  9.739850  5.084130
300  2 -0.3615  1.425580  9.411490 19.243400
301  2 -0.4170 12.978700 18.481200  5.675170
302  2 -0.4175 14.383200 18.028400 19.698500
303  2 -0.3772 12.369800  9.995310  5.545380
304  2 -0.3905 13.960500 10.056400 18.885500
305  2 -0.5482  3.891840  3.757460 10.839600
306  2 -0.4576  4.893620  3.527180 25.012800
307  2 -0.4220  2.786280 11.682100 12.142800
308  2 -0.4964  4.888190 11.745900 25.218400
309  2 -0.6135 15.123200  3.308420 11.990800
310  2 -0.4292 17.053500  3.541350 25.784600
311  2 -0.4718 15.257500 12.020700 12.016500
312  2 -0.5157 17.096200 11.646500 25.643300
313  2 -0.4836  3.007840  7.166330 11.220300
314  2 -0.5457  4.773250  6.981540 24.938200
315  2 -0.5821  3.037630 16.534100 10.702000
316  2 -0.4503  5.213890 15.723200 25.654700
317  2 -0.5067 15.794100  7.746930 12.047600
318  2 -0.4278 16.563500  7.527130 25.400500
319  2 -0.4319 15.202500 15.749400 12.086900
320  2 -0.4918 17.026500 15.759000 25.620200

