Generated by pymatgen.io.lammps.data.LammpsData

360  atoms

  2  atom types

0.000000 16.677463  xlo xhi
0.000000 21.699897  ylo yhi
0.000000 28.493178  zlo zhi

Masses

1  208.9804
2   78.9600

Atoms

1    1  0.8290  2.252480 13.107600 20.881400
2    1  0.7528  4.352680 16.477500 20.460700
3    1  0.8137  2.188850  6.131150 20.927200
4    1  0.8688  4.778230  9.739040 20.862600
5    1  0.8656  6.429260 13.334200 20.542000
6    1  0.8315  8.909520 16.695800 20.013900
7    1  0.8078  1.852910 19.973900 20.475900
8    1  0.8075  4.076430  2.331430 20.465800
9    1  0.8567  6.658700  5.679420 20.954300
10   1  0.8066  8.710220  9.815310 20.182000
11   1  0.7259 10.690400 13.247800 20.116100
12   1  0.8462 12.906500 16.693700 20.824800
13   1  0.8165  6.098880 19.801600 19.842600
14   1  0.7232  8.350290  2.010000 20.348400
15   1  0.8605 10.367600  5.571730 20.831700
16   1  0.7587 12.602800  9.826230 20.738400
17   1  0.7823 14.654900 13.011900 20.544600
18   1  0.7962  0.405184 16.411600 20.898400
19   1  0.7639  9.717600 20.044900 20.487400
20   1  0.6938 12.438700  2.496940 20.287400
21   1  0.7350 14.264500  5.834350 20.781100
22   1  0.8625  0.499252  9.507790 21.061200
23   1  0.7750 14.477100 20.012300 20.600000
24   1  0.7836  0.018037  1.891890 20.618600
25   1  0.8325  2.447260 12.417200 25.908600
26   1  0.7107  4.148850 16.473400 26.330900
27   1  0.6799  1.904060  5.296790 27.629400
28   1  0.7037  4.846760  9.030850 27.516400
29   1  0.8541  6.208240 12.709300 26.191400
30   1  0.8177  8.491860 16.081800 26.465800
31   1  0.7168  2.636450 20.115800 26.376200
32   1  0.8192  4.319800  1.911920 26.713900
33   1  0.7510  5.871880  5.561770 26.372400
34   1  0.7948  8.814770  8.913810 26.299100
35   1  0.8252  9.838620 12.365800 26.932500
36   1  0.8252 12.348100 16.469500 25.774000
37   1  0.7434  6.236560 19.522700 26.295800
38   1  0.7867  8.332540  2.400080 25.767800
39   1  0.7340 10.457700  4.883370 25.956500
40   1  0.8567 12.394800  8.807460 26.556900
41   1  0.8635 14.951300 12.326200 26.181500
42   1  0.7807 16.493700 16.511500 26.495800
43   1  0.8794 10.445800 19.830100 25.675600
44   1  0.7095 12.291000  1.541450 26.646400
45   1  0.8095 14.090400  5.096630 26.737500
46   1  0.8291  0.292103  8.958100 26.562700
47   1  0.8454 14.797400 20.266200 26.699300
48   1  0.8400  0.141367  2.167420 27.215300
49   1  0.7695  2.045560 15.229600  1.145940
50   1  0.7198  4.755620 18.333500  1.790010
51   1  0.7502  2.117610  8.012130  1.492160
52   1  0.8132  4.017060 11.856200  1.345840
53   1  0.8565  6.500500 14.804200  1.575580
54   1  0.8619  8.899160 18.257000  0.994623
55   1  0.7750  2.152370  0.727094  1.890040
56   1  0.7916  4.500080  3.623900  1.795540
57   1  0.8445  6.685010  7.607900  2.473800
58   1  0.7448  9.016710 11.645500  1.741630
59   1  0.7734 10.766800 15.037900  1.856140
60   1  0.8540 12.624600 18.715000  1.747320
61   1  0.7787  6.428360  0.195542  1.187120
62   1  0.8227  8.265520  4.392200  1.652980
63   1  0.8042 10.500300  8.154130  2.269350
64   1  0.8153 12.723600 11.536400  1.604320
65   1  0.7583 14.406500 15.403500  1.534010
66   1  0.8119  0.218637 19.037800  1.127200
67   1  0.7378 10.266300  0.542660  1.239580
68   1  0.8129 12.144800  4.501470  1.622200
69   1  0.7826 14.192800  8.176590  1.810170
70   1  0.7755 16.592400 11.746700  1.472240
71   1  0.8286 15.023800  0.805898  1.775240
72   1  0.7220 16.495300  5.030050  1.992290
73   1  0.8819  2.283990 14.774700  7.432400
74   1  0.7764  4.605360 18.461300  6.922300
75   1  0.8241  2.479360  7.535030  8.041990
76   1  0.8222  3.899180 10.877300  7.785470
77   1  0.7564  6.619730 15.090100  6.822710
78   1  0.7787  8.574820 18.872600  8.028510
79   1  0.7735  2.595370  0.365447  7.939300
80   1  0.8023  4.526710  4.081260  7.717160
81   1  0.7998  6.821310  7.754320  8.003990
82   1  0.8262  8.911110 11.312200  7.947410
83   1  0.8516 11.125700 15.181000  8.126620
84   1  0.7239 12.762800 19.078900  7.902850
85   1  0.7480  6.299800  0.477851  7.597850
86   1  0.7874  7.951140  3.895700  7.881900
87   1  0.7714 10.734900  7.916640  7.481390
88   1  0.8698 12.626200 11.392600  7.171620
89   1  0.7963 14.760600 14.754800  7.818480
90   1  0.7986  0.316937 18.527500  8.030400
91   1  0.7803 10.750200  0.723960  7.215170
92   1  0.7198 12.926900  5.005960  8.312590
93   1  0.8892 15.115700  7.810570  7.054080
94   1  0.8636  0.212555 11.635700  7.924910
95   1  0.7425 14.988100  0.468407  8.029880
96   1  0.8034  0.489648  4.562300  7.481890
97   1  0.8292  0.536702 13.799900 11.320800
98   1  0.8756  2.488680 17.082200 10.716100
99   1  0.8013  0.666826  7.156910 11.417600
100  1  0.7989  2.324580 10.810400 11.326800
101  1  0.7483  4.788950 13.678200 10.197600
102  1  0.7473  6.473840 17.288800 10.881500
103  1  0.9186  0.484301 20.503500 12.102800
104  1  0.8215  2.124870  2.783530 11.140700
105  1  0.7606  4.322510  6.878220 11.366000
106  1  0.8106  6.219670  9.904580 10.983600
107  1  0.7116  8.270440 13.714500 10.258400
108  1  0.8777 10.424300 17.444500 11.165300
109  1  0.8418  4.709960 21.142700 11.461800
110  1  0.7049  6.529310  3.019050 11.234400
111  1  0.7082  8.646890  6.421950 12.115400
112  1  0.6882 10.786100  9.926320 11.014200
113  1  0.7918 12.328700 13.336700 11.239600
114  1  0.7679 14.056400 17.437600 11.687900
115  1  0.7305  8.340040 21.490400 10.814800
116  1  0.8546 11.190500  3.383580 11.252000
117  1  0.7352 12.981000  6.631170 11.474700
118  1  0.8311 14.429300 10.099400 10.792100
119  1  0.8102 12.905500 21.038200 11.270100
120  1  0.6974 15.344900  3.706670 10.881900
121  1  0.8655  0.054959 14.165700 17.154400
122  1  0.7660  1.806740 17.530300 17.912200
123  1  0.7608 16.580900  6.928180 17.657500
124  1  0.7929  2.567410 10.449200 17.239500
125  1  0.6953  3.873650 14.224800 17.086100
126  1  0.7721  6.359470 17.242900 16.801100
127  1  0.7908  0.297525  0.146489 16.999900
128  1  0.7422  2.520620  3.269190 17.565000
129  1  0.8742  4.445150  6.540440 16.372700
130  1  0.7762  6.531310 10.288800 17.871600
131  1  0.7827  8.493820 14.390100 15.980000
132  1  0.8083 10.807300 17.912000 16.445700
133  1  0.8308  3.847560 21.496800 16.987300
134  1  0.7969  7.060900  2.965680 17.010600
135  1  0.8037  9.261600  6.417750 17.002300
136  1  0.8181 10.713700 10.070300 16.549700
137  1  0.8558 12.722600 13.792300 16.959400
138  1  0.7838 14.480100 17.942200 16.891300
139  1  0.7978  8.099030 20.583200 16.748400
140  1  0.7595 10.615100  3.319830 17.038900
141  1  0.7321 12.979100  7.248870 17.580600
142  1  0.8869 14.898200 10.692500 16.490200
143  1  0.8316 13.187300 21.438400 16.616700
144  1  0.8043 14.970000  3.210650 17.098000
145  2 -0.7731  0.026137 13.734000 27.869600
146  2 -0.9168  1.936770 17.760200 28.236300
147  2 -0.8110 16.000600  6.934320 28.481500
148  2 -0.8172  2.090690 10.536000 28.419100
149  2 -0.8214  4.023910 14.213700 28.249700
150  2 -0.8416  6.682560 17.069600 28.308800
151  2 -0.9084 16.496300 21.383300 28.350100
152  2 -0.9488  2.108570  2.939390  0.133122
153  2 -0.7950  4.411200  6.672670  0.469428
154  2 -0.6959  6.484900 10.194300  1.068160
155  2 -0.8914  7.824980 13.530100 28.157800
156  2 -0.8823 10.175100 18.134500 27.482500
157  2 -0.9148  4.512900 21.379300 27.900400
158  2 -0.8040  6.718200  3.174800 28.318900
159  2 -0.7491  8.167860  6.734060 28.378700
160  2 -0.8696 10.974300 10.289900  0.019579
161  2 -0.8140 12.040700 13.870000 28.349100
162  2 -0.8159 14.379900 17.517300 28.184900
163  2 -0.7078  8.308140 21.066500 27.599000
164  2 -0.8615 10.516200  3.279120 28.280200
165  2 -0.8145 12.400900  6.796770 28.459100
166  2 -0.7607 14.528600 10.175300 27.918400
167  2 -0.7809 12.880100 20.740800  0.297627
168  2 -0.8395 14.466600  3.025950 28.493100
169  2 -0.3405  2.134380 15.095600 24.357900
170  2 -0.2605  4.993700 18.519000 23.938600
171  2 -0.4010  2.824110  8.079840 25.571200
172  2 -0.5443  4.569890 10.872500 25.482800
173  2 -0.4794  6.502130 15.299800 25.183400
174  2 -0.2876  8.425090 18.738400 23.996900
175  2 -0.2815  2.803760  0.487268 24.758300
176  2 -0.3919  3.512320  4.260060 25.282400
177  2 -0.1624  7.075100  8.209270 24.248100
178  2 -0.5357  8.501540 11.191000 25.402600
179  2 -0.3993 10.646200 14.595100 24.967200
180  2 -0.5062 13.077600 18.965300 25.063400
181  2 -0.3044  6.025350  1.193660 24.780000
182  2 -0.5311  7.956620  4.852930 24.807600
183  2 -0.4092 10.538200  7.779790 24.807700
184  2 -0.2036 12.316700 11.448400 24.534200
185  2 -0.3851 14.829400 14.983400 25.038400
186  2 -0.2893  0.368337 19.167900 24.464800
187  2 -0.4777 10.112400  0.435465 24.678300
188  2 -0.4139 12.867400  3.911410 24.773800
189  2 -0.3207 14.832700  7.861480 25.103300
190  2 -0.4603  0.299337 11.160100 24.948100
191  2 -0.3241 14.953000  0.935729 25.272200
192  2 -0.3295  0.112537  4.114490 25.439800
193  2 -0.4432  0.166793 13.869700 22.129200
194  2 -0.4941  2.151800 18.048400 22.113200
195  2 -0.4169 16.375000  7.193650 22.160000
196  2 -0.3899  2.620980 10.891600 22.544900
197  2 -0.4165  4.457020 14.125300 22.380400
198  2 -0.3363  6.522240 17.383000 21.792200
199  2 -0.3194 16.529300 21.473300 22.365100
200  2 -0.3465  2.020370  3.303790 22.100900
201  2 -0.3981  4.962190  7.316210 22.227600
202  2 -0.3775  7.124350 10.430500 22.159500
203  2 -0.4500  8.703630 14.331800 21.533400
204  2 -0.5138 10.875400 18.272900 21.928600
205  2 -0.3673  4.468380 21.263000 21.390500
206  2 -0.4013  5.771840  3.085700 22.174900
207  2 -0.3843  8.670710  7.425320 21.762100
208  2 -0.3080 10.735200 10.752000 22.425500
209  2 -0.4346 13.123900 14.506100 22.143000
210  2 -0.4312 15.072600 17.436500 22.351900
211  2 -0.2849  7.783100 21.461500 22.360300
212  2 -0.5542 10.455800  3.240910 21.992500
213  2 -0.4394 12.297700  6.920350 22.129000
214  2 -0.4055 14.575300 10.427900 22.247200
215  2 -0.2562 12.955600  0.331293 22.496300
216  2 -0.3240 14.730200  3.421060 22.237100
217  2 -0.9401  2.397650 12.729800  9.460750
218  2 -0.8914  4.247910 16.227000  8.874410
219  2 -0.8782  1.982870  5.384390  9.660330
220  2 -0.9539  4.050310  8.905480  9.673850
221  2 -0.8510  6.324600 11.980700  9.018970
222  2 -0.8599  8.411450 16.496900  9.282620
223  2 -0.7019  2.574190 19.726700  9.903320
224  2 -0.8921  4.362480  1.905390  9.625730
225  2 -0.8867  5.998000  5.580570  9.170310
226  2 -0.9008  8.576790  9.166680  9.429390
227  2 -0.9378 10.669000 12.456500  9.361070
228  2 -0.8958 12.577100 16.144800  9.679160
229  2 -0.8751  6.102570 19.967500  9.312960
230  2 -0.8053  9.024080  2.268380  9.518190
231  2 -0.8090 10.570200  5.404220  9.653870
232  2 -0.8008 13.280900  8.951270  8.677290
233  2 -0.8505 14.804700 12.217600  9.188950
234  2 -0.8156  0.481202 15.790200  8.958080
235  2 -0.8313 10.602300 19.624100  9.592530
236  2 -0.7429 12.258200  1.414880  9.277680
237  2 -0.8519 15.219500  6.061740  9.323370
238  2 -0.7401  0.093211  9.397900  9.351360
239  2 -0.8165 15.229600 20.085600  9.892770
240  2 -0.7424  0.408904  1.275920  9.930170
241  2 -0.3290 16.606600 13.846800  5.963760
242  2 -0.3410  1.807170 17.237100  6.010720
243  2 -0.5074  0.824619  6.926370  6.300230
244  2 -0.2744  1.914880 10.417000  5.908880
245  2 -0.4466  4.135580 13.219500  6.288940
246  2 -0.3678  7.116220 17.200400  5.537830
247  2 -0.3640  0.600837 20.713400  6.372620
248  2 -0.3257  2.516980  3.159180  5.854700
249  2 -0.3893  4.919130  7.005270  6.414020
250  2 -0.2258  6.527870 10.293600  5.847960
251  2 -0.3125  9.338270 13.650100  6.072910
252  2 -0.3466 11.161900 17.146400  6.479310
253  2 -0.4571  4.583960 21.048400  6.085400
254  2 -0.4604  6.421450  2.757300  6.151700
255  2 -0.2402  8.256320  6.028010  5.618860
256  2 -0.4790 10.901800 10.159500  5.996960
257  2 -0.3303 12.543600 14.167900  6.046960
258  2 -0.3205 14.831600 17.331600  6.334550
259  2 -0.3644  8.114240 20.736800  5.903880
260  2 -0.2568 10.612000  3.152520  6.044570
261  2 -0.4273 12.382700  6.507380  6.146560
262  2 -0.3468 14.986700 10.716900  5.932930
263  2 -0.3813 12.753300 20.705700  5.718740
264  2 -0.4753 15.287500  3.091920  6.620190
265  2 -0.3699  2.082360 12.567300  3.001530
266  2 -0.3844  4.419430 15.576500  3.332750
267  2 -0.3942  2.190410  5.958740  3.221670
268  2 -0.2196  4.101960  9.317130  3.472530
269  2 -0.3165  6.813480 12.893600  3.367640
270  2 -0.4106  8.441360 15.927400  2.992410
271  2 -0.3268  2.221000 20.071900  3.381700
272  2 -0.3861  4.465050  1.513250  3.299230
273  2 -0.3870  6.272970  4.696390  3.440420
274  2 -0.4405  8.693160  8.732580  3.801420
275  2 -0.3905 10.997100 12.839300  3.416610
276  2 -0.4363 12.238400 16.658900  3.186420
277  2 -0.4633  6.895980 19.375000  2.524470
278  2 -0.2664  8.479140  1.632530  3.407320
279  2 -0.3954 10.239100  5.400220  3.359410
280  2 -0.5270 12.567000  9.432240  3.304620
281  2 -0.4680 14.560000 13.221400  2.925760
282  2 -0.3443  0.257137 16.801300  2.921220
283  2 -0.4360 10.282400 19.765300  2.640900
284  2 -0.2886 12.344400  2.298750  3.427060
285  2 -0.3445 14.384700  5.351660  3.736580
286  2 -0.3832  0.136537  8.889360  3.214530
287  2 -0.3258 15.541900 20.159800  3.244690
288  2 -0.3590  0.299037  2.096430  3.488630
289  2 -0.9845  1.649810 15.052100 19.021600
290  2 -0.8311  4.205970 18.635100 18.744500
291  2 -0.7767  2.478800  8.429850 19.668100
292  2 -0.9170  4.463100 11.680100 19.540000
293  2 -0.8284  6.522400 15.288400 18.727700
294  2 -0.9565  8.086420 18.611500 18.478700
295  2 -0.9097  2.425710  0.662436 18.883300
296  2 -0.7311  4.295740  5.153120 18.764700
297  2 -0.5959  6.739060  7.551910 18.551000
298  2 -0.7895  8.319550 12.134800 18.578500
299  2 -0.8007 11.162400 15.659700 18.833900
300  2 -0.7400 12.543000 19.119000 18.351300
301  2 -0.8488  6.416270  1.167930 18.610800
302  2 -0.8716  8.711240  4.669220 19.166700
303  2 -0.8082 10.103600  8.215800 18.839600
304  2 -0.8577 12.614800 11.507200 18.139800
305  2 -0.7533 14.600600 15.599900 18.785200
306  2 -0.8216 16.418500 19.340000 18.696100
307  2 -0.6768 10.639200  0.144599 18.571000
308  2 -0.9010 12.555500  4.865890 18.461900
309  2 -0.7959 14.828800  8.624280 19.029700
310  2 -0.7314 16.634600 11.834700 18.955900
311  2 -0.8584 14.562400  0.781140 18.471800
312  2 -0.8456  0.457437  4.229890 19.066100
313  2 -0.3699  2.088400 12.433100 15.433500
314  2 -0.3397  3.823850 16.513800 15.457100
315  2 -0.3937  2.087390  5.665380 15.858300
316  2 -0.3742  4.565100  9.184640 15.797600
317  2 -0.3306  6.175250 12.482700 15.864300
318  2 -0.3994  8.662000 17.098100 14.645800
319  2 -0.4322  1.924770 19.701700 16.179200
320  2 -0.3319  4.495040  1.953390 15.199800
321  2 -0.4579  7.287890  5.107580 15.350800
322  2 -0.3768  8.367370  8.974080 15.793700
323  2 -0.4559 11.028100 12.817300 15.515500
324  2 -0.4241 12.431800 16.448400 15.058700
325  2 -0.3875  5.538200 19.857400 15.448700
326  2 -0.4667  8.975090  1.748390 15.864100
327  2 -0.2694 11.362000  5.999770 14.924000
328  2 -0.3742 12.793700  8.955580 15.188800
329  2 -0.5120 15.096000 13.175900 15.739800
330  2 -0.2727  0.167538 16.480500 15.342500
331  2 -0.3252 10.074900 19.809100 14.917400
332  2 -0.3719 12.750900  2.549030 15.584400
333  2 -0.3086 15.030300  5.715480 15.694200
334  2 -0.4411  0.474306  9.129150 16.087300
335  2 -0.4089 15.179400 20.224500 14.753500
336  2 -0.4831  0.323459  2.270840 15.680700
337  2 -0.4538  2.507350 15.123800 12.180000
338  2 -0.2690  3.746750 18.656100 12.734600
339  2 -0.3718  2.587170  8.559680 13.170800
340  2 -0.3429  4.823170 11.983100 12.562300
341  2 -0.3052  6.768010 14.719400 12.924300
342  2 -0.4080  8.372340 19.057000 12.193600
343  2 -0.3903  2.382780  0.620193 12.928900
344  2 -0.4069  4.239660  4.587310 12.992300
345  2 -0.3628  6.201150  8.274020 13.282900
346  2 -0.2914  8.652600 11.566600 12.516500
347  2 -0.4745 10.258900 14.880800 12.115900
348  2 -0.4580 12.248700 18.850200 12.941300
349  2 -0.4096  6.364810  0.824248 12.975700
350  2 -0.3507  9.048760  3.613120 13.121500
351  2 -0.4774 10.866900  7.725560 12.956500
352  2 -0.3755 12.975600 11.416700 13.001600
353  2 -0.2889 15.140300 14.928800 13.059800
354  2 -0.4276  0.060232 18.137600 12.544300
355  2 -0.2061 10.935300  0.696555 13.028100
356  2 -0.4588 13.139100  4.389710 12.620400
357  2 -0.3990 15.160000  8.311190 12.660300
358  2 -0.3771 16.489000 11.479300 12.630200
359  2 -0.3771 14.438500  0.944355 12.511900
360  2 -0.2614 16.633000  4.595460 13.089900

