Generated by pymatgen.io.lammps.data.LammpsData

216  atoms

  2  atom types

0.000000 18.096178  xlo xhi
0.000000 18.140645  ylo yhi
0.000000 18.233787  zlo zhi

Masses

1  208.9804
2   78.9600

Atoms

1    1  0.8910  0.192145  0.132225 17.826700
2    1  0.6212  0.740292 17.852100  5.437620
3    1  0.7765  0.666369 17.159500 12.102500
4    1  0.7746  0.546056  5.949370 17.806900
5    1  0.9200 18.488500  6.099880  5.744270
6    1  0.7945  0.101608  5.746920 12.010200
7    1  0.7789  0.099641 11.750300 -0.030009
8    1  0.7457 -0.096594 11.886500  5.877770
9    1  0.6774  0.319460 11.571200 12.320900
10   1  0.6788  6.010630 -0.482537 17.933600
11   1  0.7963  6.242250 17.453700  6.153120
12   1  0.8245  6.793340 17.944600 11.935800
13   1  0.8725  6.065750  5.927890 17.815600
14   1  0.7186  6.521900  6.044880  5.580990
15   1  0.7632  6.123700  5.745800 11.759100
16   1  0.7529  5.890080 11.088000 -0.037910
17   1  0.8776  6.105480 11.802300  6.256520
18   1  0.7040  6.837380 11.530600 12.128100
19   1  0.7757 12.462100 17.996200 18.056400
20   1  0.7444 12.782400 18.013200  6.098240
21   1  0.7766 12.655600 17.652100 11.981300
22   1  0.7440 11.858200  6.108770 17.574000
23   1  0.8213 12.252100  5.483940  5.717400
24   1  0.7606 11.900000  5.315000 11.824500
25   1  0.7231 12.538900 12.321500 18.108800
26   1  0.8028 12.011900 12.428500  5.408730
27   1  0.7921 11.902500 11.283700 10.895000
28   1  0.8237  0.685437  2.589360  2.525430
29   1  0.7644  0.840772  2.786350  8.926950
30   1  0.8386  0.192568  2.913960 14.431200
31   1  0.8200  0.657594  8.722440  2.778100
32   1  0.7272  0.239642  8.837510  8.814100
33   1  0.8142 -0.150156  8.549050 15.292600
34   1  0.7124  0.505861 14.644600  3.267980
35   1  0.6622 -0.020335 14.948400  9.439820
36   1  0.7230  0.719383 13.915500 15.468000
37   1  0.8295  6.202910  2.908640  3.009650
38   1  0.8331  6.425950  2.414460  8.694180
39   1  0.8706  6.192920  2.425000 14.495200
40   1  0.6779  6.301240  8.932590  2.600000
41   1  0.7884  6.619090  8.333530  8.648740
42   1  0.6048  5.959190  9.532250 14.784500
43   1  0.7711  5.874570 14.446700  3.055490
44   1  0.8606  6.102060 14.890900  8.940860
45   1  0.8434  6.078440 15.325500 15.036900
46   1  0.7566 12.217900  2.969740  2.025420
47   1  0.7213 12.862900  3.096930  8.688080
48   1  0.6706 12.397100  2.404000 14.297900
49   1  0.7929 12.052700  9.047790  2.500380
50   1  0.7917 12.532300  8.675140  8.312040
51   1  0.8698 12.805200  8.763860 14.846900
52   1  0.6950 11.559300 15.111500  3.217480
53   1  0.7279 11.988200 15.174200  9.069310
54   1  0.8621 12.476900 14.618300 14.468900
55   1  0.6470  2.802720 17.423000  3.157320
56   1  0.7533  3.161550 17.640900  9.649560
57   1  0.8919  2.737300 17.589900 15.689100
58   1  0.8573  3.595400  5.449390  2.769980
59   1  0.7672  3.229550  5.715690  8.660790
60   1  0.7928  3.505200  5.734490 15.090500
61   1  0.7444  2.547300 11.646500  3.293540
62   1  0.8484  3.588720 11.396800  9.538930
63   1  0.7621  2.972580 11.596500 14.787800
64   1  0.6653  9.157680 17.526000  1.964350
65   1  0.8104  8.771360 17.279100  8.794760
66   1  0.7648  9.732330 17.830800 14.801700
67   1  0.7811  9.209750  6.231960  3.112990
68   1  0.7686  9.580780  5.428080  8.776930
69   1  0.7535  9.316840  5.352980 14.839400
70   1  0.7523  8.873370 11.817300  2.858260
71   1  0.8070  8.721940 11.753200  8.435180
72   1  0.6736  9.444900 11.414300 14.408000
73   1  0.8426 15.372800 17.839600  2.787630
74   1  0.7387 15.366200 17.859300  8.762280
75   1  0.8151 15.403000 18.267300 15.399300
76   1  0.7907 15.916200  5.722720  2.594830
77   1  0.7327 15.640100  5.866630  8.747250
78   1  0.8247 15.305800  5.949640 14.834500
79   1  0.8549 15.207600 11.763600  2.828580
80   1  0.7363 15.592700 11.796300  8.435670
81   1  0.8026 15.162800 11.709600 14.399400
82   1  0.8455  3.178670  2.580000 18.124900
83   1  0.7580  3.308090  2.277340  5.313260
84   1  0.6434  2.961560  2.310260 11.793400
85   1  0.6954  3.712320  8.234920 18.267500
86   1  0.8701  3.291480  8.964490  5.856280
87   1  0.7940  3.400000  8.517780 12.373500
88   1  0.8461  3.400730 14.460100 18.365300
89   1  0.8069  3.628730 14.292200  6.022170
90   1  0.7604  2.909380 14.147600 12.387000
91   1  0.8575  9.559100  3.032510 17.822400
92   1  0.7961  8.993150  2.630490  5.862330
93   1  0.6916  9.337310  2.507350 12.188400
94   1  0.7593  8.972330  8.182080 17.882700
95   1  0.7423  9.204150  8.992580  5.886770
96   1  0.7322  9.490930  8.505240 11.829800
97   1  0.6441  9.461970 15.102600 18.078600
98   1  0.8332  8.940580 14.679100  5.727600
99   1  0.8034  9.505920 14.847000 11.888800
100  1  0.7931 14.670300  2.827260 18.032100
101  1  0.7865 15.515200  3.023980  5.684730
102  1  0.7900 15.189700  3.007780 12.077300
103  1  0.7588 15.696400  8.912570 17.767000
104  1  0.8692 14.957700  9.020950  5.259560
105  1  0.7619 15.452000  8.672380 10.969100
106  1  0.8619 15.370200 15.136500 17.965000
107  1  0.7767 14.568700 15.037900  5.011460
108  1  0.6882 15.191100 14.992400 11.379500
109  2 -0.8395  2.708060 18.154600 18.284500
110  2 -0.7499  3.839220 17.029900  6.593650
111  2 -0.7250  3.137290 17.044600 12.670400
112  2 -0.9047  3.309010  5.674050 17.927500
113  2 -0.6554  3.186640  5.310240  5.499860
114  2 -0.7712  3.369220  5.650740 12.087600
115  2 -0.7498  3.027430 11.548100 18.620000
116  2 -0.8031  3.054380 11.696500  5.982910
117  2 -0.8457  3.910270 11.482500 12.178800
118  2 -0.8056  9.244730 18.008700 17.469400
119  2 -0.6643  9.060040 17.815200  5.388300
120  2 -0.8167  9.420740 17.642700 11.523800
121  2 -0.8271  9.027750  5.390030 18.054400
122  2 -0.8217  9.548350  5.938600  5.851730
123  2 -0.8590  9.365740  5.555470 12.084400
124  2 -0.6697  8.629550 11.131800 17.852600
125  2 -0.8528  9.166560 12.032700  5.600380
126  2 -0.8617  9.402280 11.694200 11.293300
127  2 -0.8264 15.260600 -0.141807 -0.164744
128  2 -0.7684 15.625000 -0.214802  5.434790
129  2 -0.7070 15.714900 17.899700 11.527500
130  2 -0.7121 15.368100  5.855470 17.691200
131  2 -0.6960 15.296900  6.298990  5.713830
132  2 -0.7629 15.161300  5.966120 11.932600
133  2 -0.7276 15.355300 12.448600 17.953100
134  2 -0.7983 15.190700 11.796400  5.642510
135  2 -0.7555 15.321600 11.736600 11.397700
136  2 -0.8670  3.541060  2.561460  2.736870
137  2 -0.7405  3.785720  2.364220  8.374560
138  2 -0.6747  3.041950  2.175730 15.406700
139  2 -0.8188  3.178510  8.058100  3.193640
140  2 -0.7232  3.439050  8.305990  8.659780
141  2 -0.8370  2.898350  8.957870 14.763200
142  2 -0.9116  3.189480 14.618000  2.793560
143  2 -0.6825  3.257840 14.821500  9.478510
144  2 -0.7805  3.287240 15.019000 15.736700
145  2 -0.6732  9.468420  3.184030  2.857760
146  2 -0.7102  9.383430  2.151690  8.580050
147  2 -0.7988  8.936450  2.470890 15.187400
148  2 -0.8812  9.381060  8.815190  2.957450
149  2 -0.7832  9.368210  8.756350  9.047970
150  2 -0.7468  9.603420  8.683570 14.877100
151  2 -0.9002  8.972830 14.760700  3.000270
152  2 -0.8480  8.810860 14.755300  8.691050
153  2 -0.7277  9.586270 14.988800 14.735300
154  2 -0.6845 15.661100  2.762100  3.007660
155  2 -0.7107 15.777300  3.043680  9.182180
156  2 -0.8036 15.179100  2.795290 14.944500
157  2 -0.7219 15.274700  8.602570  2.561310
158  2 -0.8564 15.446100  8.889910  8.284780
159  2 -0.8062 15.604800  8.765930 14.701600
160  2 -0.7573 15.097200 14.836300  2.473160
161  2 -0.7210 15.127100 14.656600  8.202970
162  2 -0.6598 15.350000 14.630100 14.829100
163  2 -0.8157 -0.093598 18.392000  2.352400
164  2 -0.7326  0.353322 18.225600  9.416520
165  2 -0.7850 18.056900  0.091688 15.245600
166  2 -0.7379  0.797999  5.324710  2.808680
167  2 -0.7898  0.297423  5.813920  8.367030
168  2 -0.7972  0.466660  5.458700 14.920100
169  2 -0.8534 17.942600 11.603000  2.888360
170  2 -0.7391  0.941042 11.697600  8.723210
171  2 -0.8785  0.207287 11.359900 14.927900
172  2 -0.6964  5.659110 18.145800  3.294240
173  2 -0.8455  6.268070 17.663200  9.440560
174  2 -0.7292  5.642500 17.928500 15.101500
175  2 -0.8564  6.459250  5.668230  2.703680
176  2 -0.7568  6.669880  5.283810  8.430370
177  2 -0.7208  6.141990  5.239900 15.024700
178  2 -0.7758  6.100230 11.625500  3.289270
179  2 -0.8212  5.968410 12.026800  8.876830
180  2 -0.6804  5.580110 12.369800 15.049000
181  2 -0.7314 12.136600 18.056700  2.754920
182  2 -0.7461 12.491900 -0.146084  9.393370
183  2 -0.8286 12.433600 17.356800 14.867800
184  2 -0.6594 12.679800  5.906370  2.461840
185  2 -0.8610 12.171900  5.719590  8.577000
186  2 -0.7743 12.402300  5.898240 14.691400
187  2 -0.8601 12.696000 11.794400  2.980960
188  2 -0.6957 11.773400 11.741600  8.161940
189  2 -0.7199 12.483100 11.668400 14.954200
190  2 -0.6633 -0.094454  2.922250 17.590400
191  2 -0.6962 18.139100  3.172170  5.601260
192  2 -0.7893  0.021336  3.027900 11.675100
193  2 -0.8721  0.262545  8.781950 18.451900
194  2 -0.7968 18.598600  8.458080  5.684040
195  2 -0.7672  0.218501  8.340420 12.017400
196  2 -0.7112  0.421939 14.691500  0.192576
197  2 -0.7130  0.252556 15.017500  6.047880
198  2 -0.8814 18.464100 14.631400 12.525800
199  2 -0.5636  6.306920  2.679310 17.483000
200  2 -0.7244  6.169670  2.597100  5.791490
201  2 -0.8264  5.937440  2.542030 11.874000
202  2 -0.9607  6.381300  8.250380 17.649600
203  2 -0.8405  5.984200  9.102260  6.026090
204  2 -0.8048  6.141770  8.476410 11.288700
205  2 -0.6868  5.994600 14.194200 -0.376452
206  2 -0.8813  6.253950 14.423900  5.880990
207  2 -0.6768  6.727000 15.150300 12.239000
208  2 -0.9242 12.297300  2.734080 17.510900
209  2 -0.7316 12.661000  2.858850  5.250180
210  2 -0.8532 12.179600  2.517070 11.596900
211  2 -0.7450 12.751600  8.714490 17.573800
212  2 -0.7114 12.374500  8.619890  5.697280
213  2 -0.7182 12.668900  8.901290 11.909600
214  2 -0.7643 12.364500 15.179300 18.078000
215  2 -0.8628 12.231100 15.375200  5.920760
216  2 -0.8481 12.397900 14.557000 11.909700

