Generated by pymatgen.io.lammps.data.LammpsData

80  atoms

 2  atom types

0.000000 12.125766  xlo xhi
0.000000 12.296661  ylo yhi
0.000000 14.084790  zlo zhi

Masses

1  106.42
2   78.96

Atoms

1   1  8.957480 10.978000  5.014310
2   1  1.168360 10.722200  9.035300
3   1  0.341928  2.344910  8.864120
4   1 11.169200 10.369700  6.796390
5   1  2.962640  8.159440  0.065697
6   1  2.677380  0.182131 13.256000
7   1  3.035190  3.362080 13.236100
8   1  5.006000  9.353770  1.221910
9   1  4.852600  9.459200  4.437440
10  1  8.748380  7.465010  9.149610
11  1 11.760500  3.042590 11.004400
12  1 10.429700  3.273920  2.163230
13  1  4.081060  0.706875  4.177360
14  1  5.512880  2.437190  1.803430
15  1 10.274000  0.994631  7.067240
16  1  0.366060  7.690330  1.918580
17  1  3.580400  2.837000  7.701810
18  1  8.510040  5.597540  4.520690
19  1  8.413500  9.320980 11.984600
20  1  3.574830  6.054330 11.798800
21  1  9.430300  5.741850  7.093380
22  1  9.351200  9.662290  2.306820
23  1 11.198900 10.316600 11.088800
24  1  2.390860  4.726310  2.764060
25  1  8.200130  5.631950 12.173300
26  1  1.783210  8.323240 10.521500
27  1 10.778600 11.708700  0.158557
28  1  8.109730  4.237450  9.882530
29  1  4.705930  6.515940  5.777550
30  1  5.734340  4.340120 11.821200
31  1  9.602600  0.141892  3.192360
32  1  6.069690  7.020490  8.821310
33  2  4.263130  8.605650  8.744790
34  2  5.354120  2.233030  6.136840
35  2  7.950990  8.544730  4.052570
36  2  5.279430  7.717650 12.802300
37  2  8.606250 11.774800  7.931050
38  2  4.865170  4.880650  1.384420
39  2  9.117540  9.797140  9.998580
40  2  7.197150 11.866500 11.867300
41  2  3.370160  0.467571  6.191940
42  2  2.525270  1.584390 10.217700
43  2  2.730260  7.302960  2.020300
44  2  7.909190  2.482480 13.660700
45  2 10.155400  4.659030 11.095800
46  2  0.704175 12.069400  7.126800
47  2  2.563420  2.817710  4.019430
48  2  4.806140  1.995260 12.913300
49  2  2.624220  9.449930  4.196250
50  2  0.277596  8.717720 12.276900
51  2  1.236740  4.825690 11.405300
52  2  0.710738  4.671990  4.517490
53  2  5.579390 11.526200  3.010890
54  2  7.235100  7.025930  6.848680
55  2  6.003260  2.676930  9.767740
56  2  4.719690  5.060690  7.854290
57  2  2.186290  5.420370  6.391870
58  2  7.645050  1.349130  4.969040
59  2  4.052570 11.878800  1.059280
60  2  4.615080  4.396750  3.764490
61  2  4.036400  4.279570 10.030200
62  2  8.782050  2.566050  6.634610
63  2  6.415270 12.163400  9.582590
64  2 11.168700  4.312730  8.089190
65  2 10.884800  1.105320  4.873510
66  2  2.948850 11.261100 10.999400
67  2  9.529910  1.596350 11.879800
68  2  9.747710  6.886670 13.610000
69  2  0.453757  8.231360  7.245990
70  2  0.972880  9.912990  0.231477
71  2  7.955140  9.581350  6.555360
72  2  3.578230  8.263770  6.475920
73  2 10.751100  0.976975  1.326650
74  2 10.854300  5.638990  3.455590
75  2  7.798290  8.859400  0.630049
76  2  6.448140  0.756494  0.589872
77  2 11.532400  9.893260  2.448950
78  2  1.261770  4.546440  8.568680
79  2  1.904750  0.203264  3.014750
80  2  0.576922  0.634189 11.886300

