Generated by pymatgen.io.lammps.data.LammpsData

216  atoms

  2  atom types

0.000000 18.096178  xlo xhi
0.000000 18.140645  ylo yhi
0.000000 18.233787  zlo zhi

Masses

1  208.9804
2   78.9600

Atoms

1    1  0.6015  0.534954 17.593700  0.983424
2    1  0.8254  0.525106  0.421460  7.104270
3    1  0.7873 17.968500  0.231532 11.934100
4    1  0.7459  0.958205  6.174480  1.012790
5    1  0.8839  0.628761  5.743480  6.651780
6    1  0.7253  0.995723  5.499120 13.094600
7    1  0.7664 18.032200 11.811800  0.057670
8    1  0.6731  0.879998 12.176400  6.797900
9    1  0.7162  0.830773 12.568500 12.666300
10   1  0.8860  6.677130 17.611600  0.834471
11   1  0.7528  6.233400  0.163962  6.690340
12   1  0.7267  6.804780 18.166300 13.433600
13   1  0.8070  6.888870  6.002960  0.428220
14   1  0.7178  7.204730  6.010300  7.374060
15   1  0.7662  6.799770  6.032820 12.600600
16   1  0.8224  6.167500 12.074500  0.662847
17   1  0.7997  6.609500 12.216200  6.790250
18   1  0.8419  6.264550 12.311300 12.809400
19   1  0.7570 12.241700 18.269200 18.293200
20   1  0.6998 12.049200 17.255700  6.833530
21   1  0.8668 12.275600 17.523800 12.270800
22   1  0.7846 12.650800  6.562700  0.345399
23   1  0.7327 12.506500  5.638990  5.737220
24   1  0.8353 12.769300  6.279400 13.033300
25   1  0.8139 12.213800 12.467500  0.342676
26   1  0.7201 13.045800 12.021000  6.922600
27   1  0.7909 12.311900 11.987900 12.655600
28   1  0.8177  0.652599  2.594260  3.148340
29   1  0.7183  0.408172  2.949310  9.801550
30   1  0.7893 17.702200  3.770680 15.706500
31   1  0.7842  0.530864  8.774520  3.421000
32   1  0.7544  0.754659  8.799790  9.081430
33   1  0.7849  0.465900  9.480340 14.676100
34   1  0.7868  0.077124 15.168300  3.877000
35   1  0.7725  1.132330 14.882600  9.209730
36   1  0.7454  0.261746 14.857500 15.493400
37   1  0.7798  6.355230  3.126530  3.576910
38   1  0.7572  6.929720  3.191250 10.236300
39   1  0.6820  6.652160  2.484440 16.171200
40   1  0.7373  6.682650  8.557090  3.831850
41   1  0.8357  6.938190  8.640110  9.764570
42   1  0.7085  6.329840  9.240820 15.697400
43   1  0.7117  5.913070 14.567000  4.669610
44   1  0.8555  6.780170 15.467900  9.692970
45   1  0.8046  7.047050 14.572500 16.192400
46   1  0.6916 12.473000  3.810580  2.874150
47   1  0.7470 12.279000  2.674750  9.274950
48   1  0.8249 12.685700  3.449190 15.887700
49   1  0.7252 12.399700  9.397620  3.773530
50   1  0.8039 12.588800  9.092800  9.779200
51   1  0.8805 12.360200  9.292690 15.561700
52   1  0.8266 12.700800 14.843000  3.333540
53   1  0.6797 12.680400 14.885000  9.365070
54   1  0.7461 11.910100 15.557300 15.912700
55   1  0.7481  3.078750 17.896200  3.755030
56   1  0.8317  3.639000  0.652618  9.815670
57   1  0.7191  3.399500  0.041344 16.488300
58   1  0.7601  3.228020  6.275990  3.548760
59   1  0.9109  3.931950  5.798420 10.267100
60   1  0.8144  3.740550  6.525830 15.684000
61   1  0.7418  3.231330 12.439600  3.523900
62   1  0.8014  4.239700 11.958400  9.436080
63   1  0.7272  2.743280 12.198100 16.087900
64   1  0.8243  9.129280 17.610200  3.810490
65   1  0.8531  9.305830  0.023694  9.978700
66   1  0.6921  9.353180 18.121900 16.415500
67   1  0.6808  8.956530  6.152830  4.211840
68   1  0.8741  9.855900  5.977830  9.898440
69   1  0.8148  9.174320  5.961510 15.609000
70   1  0.8008  9.281750 11.853600  3.763640
71   1  0.7657  9.426130 12.655200  9.257580
72   1  0.6843  9.911610 11.767400 15.186200
73   1  0.7107 15.809600 17.771700  2.969650
74   1  0.6251 14.544400 18.092400  9.311090
75   1  0.8423 14.898800 18.050600 15.817400
76   1  0.6420 14.829000  6.724290  2.916290
77   1  0.8578 15.420800  5.656540  9.359410
78   1  0.8676 15.155600  6.175860 15.882000
79   1  0.9309 15.471500 11.641900  3.157180
80   1  0.7574 15.670500 12.302400  9.562480
81   1  0.8180 15.324500 11.763100 15.247200
82   1  0.7977  3.264810  2.970010  1.114770
83   1  0.8108  3.843800  2.998280  6.593570
84   1  0.7831  3.506550  2.783590 12.822200
85   1  0.6604  3.552070  8.973210  0.544905
86   1  0.7299  3.762670  8.561020  6.662740
87   1  0.8431  3.849330  9.446720 12.814900
88   1  0.6732  2.729630 15.215200  0.362973
89   1  0.7148  3.705610 15.600000  6.804550
90   1  0.7812  3.244000 15.300000 12.445300
91   1  0.7852  9.227800  3.058060  0.850179
92   1  0.8188  9.821130  3.191170  6.616640
93   1  0.7100  9.537590  2.727520 12.572200
94   1  0.8125  9.445410  9.232960  0.878610
95   1  0.7389  9.833930  9.077710  7.513240
96   1  0.8335  9.156290  8.839590 13.081500
97   1  0.7914  9.079640 15.146400  1.326200
98   1  0.7718  9.123790 15.260000  6.786900
99   1  0.8309  9.856630 14.998100 12.718700
100  1  0.8246 14.978800  3.724240  0.485834
101  1  0.7763 15.150000  3.054210  6.450920
102  1  0.7734 15.182500  3.038240 12.643500
103  1  0.8188 15.486800  8.991530  0.717277
104  1  0.7289 15.822500  8.946590  6.613060
105  1  0.7479 15.441200  8.899540 12.871500
106  1  0.7972 15.114500 15.895300  0.707482
107  1  0.8685 15.815100 14.908000  6.220220
108  1  0.7723 15.635700 15.153100 12.750800
109  2 -0.8367  3.671220 -0.462794  1.093670
110  2 -0.8754  3.690590  0.401864  6.709510
111  2 -0.7248  3.631520 18.439100 12.880700
112  2 -0.7104  3.728860  5.456850  0.272226
113  2 -0.6905  4.251180  5.627410  7.599770
114  2 -0.7939  3.875600  5.900200 12.990800
115  2 -0.7945  3.180350 12.023400  0.513542
116  2 -0.7941  3.781990 12.301900  6.636470
117  2 -0.8037  3.698860 12.176100 12.931300
118  2 -0.8588  9.433550 17.723800  0.825677
119  2 -0.8035  9.477890 -0.191944  6.513380
120  2 -0.7898  9.555800 17.958500 12.816400
121  2 -0.6671  9.544250  6.132750  0.504576
122  2 -0.8688 10.038200  5.980760  7.270860
123  2 -0.7904 10.034900  6.163330 12.599300
124  2 -0.7694  9.237600 12.524300  0.635019
125  2 -0.7871  9.954910 12.264100  6.552870
126  2 -0.6851  9.189180 11.336200 12.373400
127  2 -0.8026 15.476200  0.296024  0.186674
128  2 -0.6905 15.214300 18.227400  6.592800
129  2 -0.7261 15.079900 17.750900 12.873400
130  2 -0.9608 15.288200  6.166590  0.256987
131  2 -0.7271 15.814100  6.027710  6.888420
132  2 -0.8041 15.242700  5.953150 13.246400
133  2 -0.6567 15.076300 11.581900 18.499800
134  2 -0.7592 15.910000 12.047800  6.418890
135  2 -0.7630 15.384300 12.190400 12.379100
136  2 -0.8286  3.339340  3.253510  3.697470
137  2 -0.8087  3.807120  3.355680 10.092000
138  2 -0.5750  3.275840  3.134230 16.168300
139  2 -0.7868  3.504450  8.915090  3.892060
140  2 -0.7188  3.813470  9.157710  9.666070
141  2 -0.8541  3.139920  9.026500 15.234000
142  2 -0.8447  2.981540 15.229000  4.062900
143  2 -0.7796  4.053920 14.771400  9.771700
144  2 -0.7471  3.108400 15.054700 15.633700
145  2 -0.7273  9.592200  3.445810  3.317800
146  2 -0.8182  9.683790  3.192960  9.316740
147  2 -0.7686  9.743470  3.188830 15.598500
148  2 -0.7831  9.597400  9.032140  3.672970
149  2 -0.7277  9.980270  8.840060 10.185900
150  2 -0.7334  9.683860  8.534990 16.053900
151  2 -0.8155  8.985460 14.761900  4.014310
152  2 -0.8812  9.653360 15.245000  9.647360
153  2 -0.8551  9.501870 14.752500 15.323800
154  2 -0.6725 16.352900  3.313000  3.105030
155  2 -0.8470 15.634600  3.130860  9.463960
156  2 -0.8274 15.206300  3.201870 16.170500
157  2 -0.8846 15.710000  9.253750  3.477030
158  2 -0.6594 15.870800  8.455840 10.073900
159  2 -0.7555 15.282900  9.010750 15.792600
160  2 -0.8026 15.582200 14.969700  3.356110
161  2 -0.7328 15.518500 15.020300  9.384990
162  2 -0.6768 15.630500 15.082000 16.006500
163  2 -0.8767  0.290147 18.141300  3.839700
164  2 -0.8481  1.263830  0.124059  9.554690
165  2 -0.5572  0.250376 18.163500 15.633500
166  2 -0.7389  0.632655  5.914710  3.870290
167  2 -0.6816  1.354790  5.950440  9.644160
168  2 -0.6815  0.046153  6.747580 15.279500
169  2 -0.6889  0.051574 11.666900  3.406890
170  2 -0.7743  0.640442 12.235800 10.015900
171  2 -0.9362 18.058400 12.263800 15.433400
172  2 -0.7542  6.730730  0.289938  3.263910
173  2 -0.8136  6.500860 18.330400  9.574490
174  2 -0.8237  6.700470 -0.576943 16.148500
175  2 -0.8451  6.023750  5.927400  3.287060
176  2 -0.9449  7.038980  6.070470 10.112500
177  2 -0.8302  6.529730  6.500840 16.080200
178  2 -0.7146  6.566800 11.895500  3.906960
179  2 -0.7143  6.782480 11.729800  9.742610
180  2 -0.7809  6.086690 11.985800 15.971400
181  2 -0.5929 12.177500 -0.022573  2.801650
182  2 -0.9051 11.639600  0.158719  9.684580
183  2 -0.7647 12.309500 18.020800 15.191800
184  2 -0.8430 11.846900  6.460350  3.198120
185  2 -0.7069 13.058200  6.156390 10.272500
186  2 -0.8124 12.415800  6.589290 16.053600
187  2 -0.7786 13.071800 12.338700  3.675140
188  2 -0.8286 12.838400 11.678800  9.812830
189  2 -0.8250 12.436400 12.105400 15.767200
190  2 -0.6785  0.632038  3.664980  0.264882
191  2 -0.7127  0.471313  3.029410  6.741720
192  2 -0.8481 -0.382447  2.766090 12.761700
193  2 -0.7438 18.304200  8.905470  0.336870
194  2 -0.7853  1.164940  8.228220  6.220220
195  2 -0.6336  0.649555  8.946830 12.079400
196  2 -0.7700 -0.382560 14.938300  0.529532
197  2 -0.7986  0.470355 15.279300  6.495780
198  2 -0.7484  0.522962 15.719300 11.847800
199  2 -0.7455  6.428620  2.522000  0.787781
200  2 -0.7285  6.935940  3.363320  6.998560
201  2 -0.8178  6.279660  3.218010 13.290000
202  2 -0.7583  6.430240  9.322930  0.942528
203  2 -0.7909  7.450760  9.474390  6.985570
204  2 -0.8123  6.506090  9.154240 12.490900
205  2 -0.7311  6.323760 15.033000  0.898698
206  2 -0.9601  6.617860 15.012200  7.228010
207  2 -0.6937  6.964270 14.973200 12.496800
208  2 -0.8496 12.365600  3.004840  0.126997
209  2 -0.7717 12.565200  2.736190  6.059390
210  2 -0.6680 12.420100  2.406110 12.649200
211  2 -0.7078 12.213500  9.591380  0.123600
212  2 -0.7621 13.303900  8.045850  6.181960
213  2 -0.7687 12.032200  9.309330 12.918400
214  2 -0.8599 12.448300 15.311700  0.694565
215  2 -0.8032 13.351600 14.676900  6.293840
216  2 -0.8324 12.448100 14.866700 12.405500

