Generated by pymatgen.io.lammps.data.LammpsData

320  atoms

  2  atom types

0.000000 24.637781  xlo xhi
0.000000 17.058433  ylo yhi
0.000000 27.370788  zlo zhi

Masses

1  208.9804
2   78.9600

Atoms

1    1  0.5433 -1.139690 17.837500  1.384940
2    1  0.7459 21.443300  1.473130 13.680800
3    1  0.6824 -1.752460  9.509990  0.406204
4    1  0.6399 21.648200  9.610070 14.473000
5    1  0.6643 10.426900 18.155100 27.186800
6    1  0.6150  8.567570 17.825300 13.824100
7    1  0.6224 10.929900  9.426340  0.186247
8    1  0.7190  8.422300  9.058430 13.780600
9    1  0.6612  3.995210  5.465980  9.169690
10   1  0.7762  4.710910  5.328500 23.066600
11   1  0.7539  2.872610 13.964800  9.324360
12   1  0.7332  4.958240 13.768300 23.751600
13   1  0.7662 15.908500  5.079140 10.376000
14   1  0.6071 17.367500  6.202590 23.778400
15   1  0.8344 15.582100 13.622300 10.070000
16   1  0.7604 17.520800 13.965800 23.497200
17   1  0.6942  3.993450  5.706820  4.896210
18   1  0.6528  4.896020  4.866290 18.440400
19   1  0.6594  3.003180 13.962300  4.529710
20   1  0.7350  3.728200 13.711100 18.243800
21   1  0.6877 15.517400  5.875120  5.001330
22   1  0.7232 16.994200  5.476540 18.853800
23   1  0.7073 15.926200 13.631000  5.890800
24   1  0.6695 17.502200 13.984100 19.165100
25   1  0.6828 21.670400 17.961000 10.053700
26   1  0.8182 -1.074130 17.805400 23.717200
27   1  0.8246 21.664200  9.895570  9.728250
28   1  0.7855 -1.412600  9.359860 23.696000
29   1  0.8199  9.445230  1.455420  9.352050
30   1  0.8079 10.864400  1.625550 23.125800
31   1  0.8062  9.033530  9.943190  9.420610
32   1  0.6552 11.213700 10.168400 22.847600
33   1  0.6476 -1.378440  4.974880  0.340835
34   1  0.7067 22.112700  5.379510 14.211500
35   1  0.6762 -2.278200 14.192000  0.929467
36   1  0.7823 21.620000 13.717300 14.249700
37   1  0.6592 10.723700  5.395360  0.109954
38   1  0.6307  9.249480  5.058890 13.584200
39   1  0.6171 11.356600 14.159500 26.647100
40   1  0.5987  8.913570 13.778300 13.399500
41   1  0.7820 21.537800  5.537920  9.571700
42   1  0.7784 -1.462620  5.257350 23.472200
43   1  0.8438 21.678300 13.738500 10.068200
44   1  0.9033 -1.046370 13.944800 23.330800
45   1  0.8047  9.683380  5.175910  9.647250
46   1  0.7200 10.978800  5.731490 22.388300
47   1  0.6868  8.851150 13.740500  9.766140
48   1  0.7353 10.634300 13.949000 22.856500
49   1  0.7090  3.757360 17.614000  4.445970
50   1  0.6713  4.784850  1.413660 18.725700
51   1  0.7229  3.470010  9.600580  4.947030
52   1  0.7129  4.526550 10.013800 19.338000
53   1  0.7596 15.474800 18.133700  5.204010
54   1  0.7454 17.269300 18.284800 19.403900
55   1  0.6270 15.801600  9.925460  5.599090
56   1  0.6507 17.454700 10.136400 19.101200
57   1  0.8336  3.632700 17.996300  9.664800
58   1  0.7488  4.742080 17.937200 23.444000
59   1  0.5671  2.942270  9.713710  9.617210
60   1  0.7259  4.623480  9.690610 23.366400
61   1  0.7762 15.117300 17.536500  9.984880
62   1  0.6982 17.831600 18.340200 24.175800
63   1  0.7107 15.386300  9.585550  9.946450
64   1  0.7457 17.101000  9.923160 23.161400
65   1  0.7025  1.694630  7.572350 26.131400
66   1  0.7303  0.684277  7.432340 12.087800
67   1  0.7063  1.505010 16.300300 26.202700
68   1  0.7631 -0.386145 16.129400 11.524300
69   1  0.7650 14.111600  7.543430 25.484800
70   1  0.6439 12.159700  7.052500 11.818100
71   1  0.6725 13.691700 16.538800 25.225000
72   1  0.7656 12.063600 16.082800 11.624300
73   1  0.7705  8.372150  7.937390 24.701000
74   1  0.6734  6.139080  6.743690 12.001000
75   1  0.7655  7.950020 16.095600 24.931200
76   1  0.7786  6.274450 16.185300 11.250400
77   1  0.7738 20.395400  7.825990 25.461500
78   1  0.7531 19.218800  7.200680 11.985600
79   1  0.7318 20.410100 16.582900 25.860200
80   1  0.8402 18.236800 15.906000 11.953900
81   1  0.7241  1.923210  3.230290 25.547800
82   1  0.8662  0.948952  3.434180 11.490500
83   1  0.7121  1.674480 11.565800 26.995900
84   1  0.7796 -0.424222 11.844000 12.003900
85   1  0.7311 13.693000  3.585370 25.472200
86   1  0.7240 12.818700  3.123870 11.617400
87   1  0.7118 14.195800 11.661700 25.759200
88   1  0.6950 11.848900 11.562600 12.275100
89   1  0.7251  7.946820  3.645500 25.411100
90   1  0.7416  6.834180  3.010380 11.461200
91   1  0.7252  8.216080 12.161700 25.239000
92   1  0.6618  5.964850 11.548600 12.030000
93   1  0.6553 20.306500  3.226700 26.084800
94   1  0.7632 18.750000  3.218560 11.182300
95   1  0.8130 20.204400 11.986900 25.467400
96   1  0.9008 18.758800 11.619900 12.106300
97   1  0.7525  0.245660  7.711540  7.631580
98   1  0.6574  1.780550  7.122080 21.236800
99   1  0.7341  0.015223 16.175300  6.998600
100  1  0.7609  1.756650 15.735800 21.513700
101  1  0.7380 12.423500  8.488130  7.230560
102  1  0.7788 14.750200  8.112380 21.098000
103  1  0.7320 12.344100 15.914200  7.168490
104  1  0.8192 14.284600 16.707500 20.943900
105  1  0.7450  6.823290  8.050480  7.243590
106  1  0.7355  7.961280  7.491830 19.961900
107  1  0.6463  6.447600 15.639500  7.171590
108  1  0.7869  7.518390 15.927800 20.260800
109  1  0.7897 18.272500  7.518970  8.128350
110  1  0.7965 20.219700  7.727700 20.999700
111  1  0.8221 18.972700 15.416900  7.617990
112  1  0.8029 20.224400 16.173300 21.779300
113  1  0.7572  0.974573  3.400210  7.125680
114  1  0.6493  1.822100  3.246740 21.091100
115  1  0.8303 -0.079331 11.783900  7.162960
116  1  0.7392  1.656210 11.971500 21.487700
117  1  0.7756 12.869400  2.631430  7.582430
118  1  0.8093 14.448900  3.648140 21.557200
119  1  0.7061 12.828700 12.167800  7.898200
120  1  0.7577 14.006700 12.183700 21.348600
121  1  0.7450  6.501470  3.045740  7.352490
122  1  0.7442  8.552160  3.605830 20.914800
123  1  0.6505  6.020350 11.941400  7.042610
124  1  0.7286  7.438810 12.026100 20.877000
125  1  0.7553 18.622100  3.295690  7.170660
126  1  0.7649 19.958400  3.382690 21.617600
127  1  0.8085 18.676300 11.735500  7.709060
128  1  0.7311 20.375300 11.924400 21.392400
129  2 -0.7797  6.801010  5.125480  9.525940
130  2 -0.7573  8.197590  5.695160 22.772600
131  2 -0.7546  5.777530 14.171100  9.670930
132  2 -0.8095  7.808910 14.047800 23.071000
133  2 -0.8818 18.471000  5.213750  9.596520
134  2 -0.7820 20.308500  5.802330 23.338200
135  2 -0.7367 18.473400 13.712800 10.219200
136  2 -0.7579 20.496200 14.340100 24.194500
137  2 -0.6960  0.921085  5.232650  9.482880
138  2 -0.7721  2.054070  5.279600 23.503400
139  2 -0.7189 -0.408844 13.410800  9.762880
140  2 -0.6945  1.656470 13.504000 23.815700
141  2 -0.7532 12.609800  5.046680  9.799670
142  2 -0.7664 14.190100  5.927090 23.300300
143  2 -0.7749 12.779400 14.155500  9.649180
144  2 -0.6833 13.698100 14.463400 22.974200
145  2 -0.2209 14.857400  3.554370  3.128140
146  2 -0.0914 -1.954160  3.656360 17.572500
147  2 -0.0895 16.554000 10.449600  2.464510
148  2 -0.1118 -0.903248 11.634800 16.647500
149  2 -0.1004  9.224750  4.944850  4.571150
150  2 -0.0331 13.478700  3.792700 15.782600
151  2 -0.2822  3.625890 10.123600  2.315020
152  2 -0.1374 10.500200 12.725400 17.176100
153  2 -0.0350 21.160400 10.603300  3.821830
154  2 -0.2751 -2.309810  7.442580 16.516900
155  2 -0.2317 19.190600 14.286300  0.702664
156  2 -0.0703  2.951250 18.207900 15.776900
157  2 -0.0768  8.077050 12.578700  3.976450
158  2 -0.1853 16.837200  7.896080 16.491800
159  2 -0.0234 10.041400 15.568200  3.236170
160  2 -0.0043 10.842300 18.339500 17.779400
161  2 -0.8331  6.672950 18.381500  9.632520
162  2 -0.6858  8.014760  1.351280 22.468400
163  2 -0.7788  6.442330 10.129900  8.903230
164  2 -0.7617  7.989380 10.028000 22.717000
165  2 -0.6741 18.726000 17.940300  9.483510
166  2 -0.8184 20.405600 18.402000 23.616500
167  2 -0.7587 18.798300  9.846510 10.247500
168  2 -0.7797 20.101300  9.833530 23.370700
169  2 -0.6654  0.465852  1.268450  9.744620
170  2 -0.7568  1.802840 17.917100 23.522800
171  2 -0.7643 -0.325455  9.843060  9.339090
172  2 -0.6829  1.706770  9.453160 23.823800
173  2 -0.8329 12.104300 18.030700  9.834570
174  2 -0.7268 13.994900  1.387980 23.350600
175  2 -0.7977 12.762400 10.075600  9.422090
176  2 -0.8184 14.096700  9.898560 22.903500
177  2 -0.0803 10.197600  3.345740  3.412300
178  2 -0.0020 -0.944245  2.033200 16.793300
179  2 -0.0963  5.392340 11.470400  2.454000
180  2 -0.1960 21.331300 15.926100 16.285400
181  2 -0.1198 18.638700  3.232300  3.460590
182  2 -0.0251 15.311100  4.948750 15.113400
183  2  0.0116 18.166000 11.803800  2.786180
184  2 -0.0196 11.398900 10.751400 16.848300
185  2 -0.0251  9.947830 11.376500  4.201690
186  2 -0.0461  3.481230  8.248790 15.871300
187  2 -0.0181  7.594230 15.436500  3.043200
188  2 -0.1887  3.664950  3.070950 14.953400
189  2  0.0717 21.262000  8.068770  4.288340
190  2 -0.0911 10.645300  5.767350 16.956500
191  2 -0.2124 15.858100 15.489500  3.161620
192  2 -0.0576 11.037200 16.330500 16.644000
193  2 -0.2915  4.332530  3.338780  2.841820
194  2 -0.1403  2.184320  6.404020 16.683200
195  2 -0.4353  0.357630 14.646700  4.673200
196  2 -0.3830  1.117670 14.038400 19.151400
197  2 -0.3660 12.451200  6.613200  4.809310
198  2 -0.4520 13.995800  5.805020 19.621700
199  2 -0.1509 12.217000 15.347500  3.652070
200  2 -0.4034 14.469400 14.415100 19.223500
201  2 -0.4080  0.593764  5.725920  5.359940
202  2 -0.4782  7.814680  5.338980 18.436600
203  2 -0.1809  5.374600 15.448400  2.077150
204  2 -0.4698  7.497260 13.782800 18.494400
205  2 -0.3859 18.627900  5.863490  5.574690
206  2 -0.3872 20.223200  5.545300 19.022900
207  2 -0.4820 18.681300 13.565000  5.670490
208  2 -0.4915 20.235000 14.005500 19.247600
209  2 -0.8087 22.092300  7.576150 11.593600
210  2 -0.8721 -1.458770  7.313730 25.391000
211  2 -0.7948 21.132300 15.763400 11.980200
212  2 -0.8076 -1.308990 15.740200 25.232500
213  2 -0.7851  8.938010  7.341250 11.377300
214  2 -0.8170 11.113000  7.628870 24.726600
215  2 -0.8929  8.984570 15.866100 11.572300
216  2 -0.8938 10.535300 16.294700 24.498500
217  2 -0.8131 21.926200  3.326220 11.431400
218  2 -0.8491 -1.243510  3.195860 25.540200
219  2 -0.9016 21.325900 11.966800 12.011300
220  2 -0.6889 -1.623290 12.054200 25.681100
221  2 -0.9273  9.370670  2.937280 11.672600
222  2 -0.8854 10.782500  3.503160 25.159300
223  2 -0.9200  9.007060 11.531400 11.636900
224  2 -0.9223 11.124600 12.153100 24.789100
225  2 -0.4945  1.507260 15.664700  1.282000
226  2 -0.4617 -0.548413 17.970400 13.375400
227  2 -0.3314 -0.911623  7.279110  2.289190
228  2 -0.2371  0.672827  9.747440 14.552300
229  2 -0.3987 13.428200 18.265600  0.568546
230  2 -0.3369 12.954400 18.076400 13.605800
231  2 -0.4245 14.250700  9.396160  0.210413
232  2 -0.4727 11.415700  9.025120 13.797300
233  2 -0.4566  7.800640 17.785600 27.213700
234  2 -0.3748  8.252330  2.252230 16.359100
235  2 -0.2980  7.471960  9.352170 26.965500
236  2 -0.5670  7.451940  7.009620 14.561600
237  2 -0.5578 20.536200 17.912300  0.731450
238  2 -0.4478 18.739600  1.490840 13.584700
239  2 -0.4549 19.923100  9.815940 27.093600
240  2 -0.5010 18.855200  8.792200 13.789400
241  2 -0.8597  3.806600  7.394170  6.901040
242  2 -0.7594  4.691860  7.209080 20.763100
243  2 -0.7865  3.234410 15.989300  7.407000
244  2 -0.7194  4.835460 15.790800 20.937500
245  2 -0.7916 15.603500  7.129770  8.066910
246  2 -0.9264 17.444300  7.901380 21.110700
247  2 -0.7829 15.500700 15.816900  8.060070
248  2 -0.7962 17.514700 16.257600 21.992600
249  2 -0.7845  3.794160  2.802530  7.750180
250  2 -0.8302  4.784880  3.210270 20.997300
251  2 -0.8180  2.755770 11.968600  6.664670
252  2 -0.8740  5.040740 12.001000 21.585700
253  2 -0.7445 15.752300  2.631850  7.670600
254  2 -0.8340 16.962600  2.908250 21.671100
255  2 -0.9512 15.945600 12.008200  7.885810
256  2 -0.8783 17.326500 12.160700 21.153000
257  2 -0.3919  7.753610  5.915600 27.255200
258  2  0.0152 12.086800  7.604210 16.350400
259  2 -0.4183  9.121390 12.863900  0.287811
260  2 -0.3659  5.445930 14.168900 13.517100
261  2 -0.3247 20.147600  6.320010  0.541813
262  2 -0.4054 19.248300  5.176770 14.169800
263  2 -0.1000 21.681000 13.933500  4.379610
264  2 -0.5100 18.842300 13.479200 14.124100
265  2 -0.4122  2.116050  5.508040  0.657258
266  2 -0.4735  0.581495  5.173320 13.569500
267  2 -0.4802 -0.054166 11.625700  1.758810
268  2 -0.4377 -0.241208 13.927900 13.533600
269  2 -0.4593 13.409400  4.826770  0.443437
270  2 -0.3236 17.772200  2.764890 17.391400
271  2 -0.2406 13.543200 12.311700  1.659600
272  2 -0.2155 12.514200 13.878700 14.582500
273  2 -0.4234 -2.239730  3.710820  7.576600
274  2 -0.4184 -1.295430  2.820500 21.600500
275  2 -0.5008 21.768400 12.126700  7.772050
276  2 -0.5779 -1.123800 11.736400 22.187800
277  2 -0.4862  9.902700  3.506530  7.535780
278  2 -0.5530 11.375300  2.913370 21.082500
279  2 -0.5045  8.793240 11.798500  7.337670
280  2 -0.4620  6.334970  9.113750 17.884600
281  2 -0.4974 21.589600  7.713370  8.133420
282  2 -0.4668 -1.433270  7.452620 21.377900
283  2 -0.6021 21.825900 15.647900  8.117590
284  2 -0.4906 -0.844791 16.017900 21.593100
285  2 -0.5005  9.645270  7.680410  7.636070
286  2 -0.3456 11.445500  8.219640 19.847900
287  2 -0.4964  9.234570 15.759500  7.245530
288  2 -0.3312 11.011200 15.883000 20.512500
289  2 -0.3711  6.863040 17.948100  4.908810
290  2 -0.4075  5.756600 16.566300 17.185500
291  2 -0.3904  6.006380  8.629240  4.447830
292  2 -0.2046  3.990800 12.199800 15.807500
293  2 -0.3834 18.734400 17.368900  5.790950
294  2 -0.3740 20.351400 17.953100 19.714200
295  2 -0.5203 18.560600  9.355030  6.182480
296  2 -0.3409 21.293400 10.146100 19.231400
297  2 -0.5204  1.171410 17.873400  4.189150
298  2 -0.3629  1.584510 17.829700 19.249800
299  2 -0.2902 -0.058808  9.671500  4.912870
300  2 -0.4177  1.784170 10.329800 19.153200
301  2 -0.5126 12.691400 17.846900  5.418550
302  2 -0.4223 14.510900  1.608550 19.144500
303  2 -0.4775 12.964900 10.962000  5.048500
304  2 -0.4113 14.523800 10.774000 19.116900
305  2 -0.5645  3.956010  2.888580 11.391700
306  2 -0.4730  4.782770  2.939360 25.369800
307  2 -0.4341  2.399890 12.086500 11.640300
308  2 -0.4003  4.526950 10.930200 25.924300
309  2 -0.5697 15.771300  2.889110 11.721800
310  2 -0.3918 17.468100  3.541860 26.580700
311  2 -0.4021 15.435700 11.793300 12.203600
312  2 -0.5418 17.247000 11.561500 25.162300
313  2 -0.5593  3.423750  7.841050 12.177400
314  2 -0.3845  5.215880  7.221250 25.113100
315  2 -0.4005  3.058820 15.949800 11.489600
316  2 -0.5396  4.831380 16.101200 25.476300
317  2 -0.3714 15.296100  7.273520 12.599800
318  2 -0.3524 16.732500  8.017420 26.225000
319  2 -0.4701 15.330300 15.481700 12.065200
320  2 -0.4309 17.067700 15.344100 25.752600

