Generated by pymatgen.io.lammps.data.LammpsData

360  atoms

  2  atom types

0.000000 16.871067  xlo xhi
0.000000 22.058404  ylo yhi
0.000000 29.928687  zlo zhi

Masses

1  208.9804
2   78.9600

Atoms

1    1  0.9134  1.737340 13.144700 22.073300
2    1  0.7865  4.230710 16.873800 21.873200
3    1  0.7310  1.857730  5.752650 21.533500
4    1  0.7968  4.320210  9.469490 22.097500
5    1  0.7873  6.032370 12.973900 21.723700
6    1  0.7006  8.444730 17.584600 21.499900
7    1  0.8363  1.913470 20.746200 21.858900
8    1  0.8138  4.086370  2.791990 21.826200
9    1  0.7785  6.507210  6.287670 21.326400
10   1  0.7925  8.503840  9.307070 21.510300
11   1  0.7306 10.695400 13.326900 21.844000
12   1  0.7629 12.829000 17.061900 21.876800
13   1  0.7562  6.252430 20.514300 21.784000
14   1  0.6996  8.242890  2.335190 22.023000
15   1  0.7779 10.487800  5.882640 21.856000
16   1  0.7495 12.780500  9.842390 21.332700
17   1  0.7376 14.389900 13.565200 21.540300
18   1  0.8205  0.036351 16.594900 21.740400
19   1  0.6889 10.375200 20.951700 21.637700
20   1  0.7060 12.447100  2.521020 21.635800
21   1  0.7747 14.606100  6.219500 21.753800
22   1  0.8746 16.575800  9.828240 21.796600
23   1  0.8056 14.890400 20.524900 21.795100
24   1  0.8128 16.603900  2.026550 22.058500
25   1  0.7612  1.692300 13.609900 28.074700
26   1  0.7589  3.995680 17.442200 27.568900
27   1  0.7122  1.905950  6.197220 28.429000
28   1  0.6854  3.992980 10.092800 27.978600
29   1  0.7749  6.118010 13.898700 28.100000
30   1  0.7694  8.101380 17.265900 28.431300
31   1  0.7613  1.429810 20.695900 28.268300
32   1  0.7072  4.344880  2.591550 28.321000
33   1  0.7340  6.241570  6.229020 28.173400
34   1  0.7342  8.370920  9.886310 28.575700
35   1  0.7482 10.774100 13.611800 27.959900
36   1  0.7211 12.432000 17.408300 27.764300
37   1  0.7332  6.136650 20.979400 28.052700
38   1  0.7089  8.697040  2.484230 28.297200
39   1  0.7350 10.560300  5.994420 28.655900
40   1  0.7676 12.490300  9.839830 28.320700
41   1  0.8189 14.624500 13.187200 28.038300
42   1  0.7213 16.620600 16.963300 28.428300
43   1  0.8286 10.455500 20.797900 27.754800
44   1  0.7490 12.647500  2.442320 28.032300
45   1  0.7561 14.460000  6.194810 28.350700
46   1  0.8307 16.598500  9.660390 27.984300
47   1  0.6586 14.404500 20.675600 28.166500
48   1  0.6842 16.466600  2.903500 28.078900
49   1  0.7484  1.980510 16.058100  1.887480
50   1  0.8063  3.953120 19.640400  1.550650
51   1  0.8036  2.054710  8.545010  1.751510
52   1  0.7388  4.175470 12.251000  1.943500
53   1  0.7920  5.907200 16.281700  1.855050
54   1  0.7465  8.369480 19.956200  1.594930
55   1  0.7851  1.726450  1.228360  1.621440
56   1  0.7925  4.466340  5.221980  1.502360
57   1  0.7985  5.917400  8.998300  1.898480
58   1  0.7510  8.069750 12.741900  2.297790
59   1  0.7204 10.044600 16.225500  2.326840
60   1  0.7784 12.193000 19.531500  1.751120
61   1  0.7664  6.248820  1.408970  1.400330
62   1  0.8580  8.389700  5.076660  1.996870
63   1  0.8548 10.591600  8.689870  1.582220
64   1  0.7816 12.400000 12.478800  1.613940
65   1  0.7993 14.512900 15.768700  2.206490
66   1  0.7852 -0.046463 19.568000  2.087740
67   1  0.8107 10.417100  1.347210  1.691470
68   1  0.8375 12.571400  5.083100  1.699480
69   1  0.8518 14.452800  9.188730  2.018660
70   1  0.7731  0.164569 12.317900  2.034140
71   1  0.7527 14.429200  0.986613  1.304910
72   1  0.7596 16.831100  5.311000  1.553500
73   1  0.7642  1.731930 15.621400  8.410840
74   1  0.7161  4.227820 19.817000  8.492950
75   1  0.8510  1.726980  8.581880  8.229630
76   1  0.7221  4.151960 12.396900  8.038140
77   1  0.7074  5.849400 16.218200  8.201340
78   1  0.8030  8.365660 20.246700  8.022920
79   1  0.7251  2.588800  1.027960  8.070880
80   1  0.7669  4.336950  4.552930  8.407160
81   1  0.7595  6.233620  8.468760  8.332230
82   1  0.7448  8.005290 12.519800  7.703090
83   1  0.8414 10.118800 16.469200  8.258360
84   1  0.7767 12.483400 19.892900  8.231130
85   1  0.7958  6.501840  1.650660  7.975770
86   1  0.7784  8.253080  5.312350  8.210570
87   1  0.8278 10.274400  9.056980  7.766160
88   1  0.8275 12.235600 12.475500  8.156630
89   1  0.7939 14.436900 16.399500  8.021620
90   1  0.7015 16.540400 19.870700  8.191930
91   1  0.8307 10.656400  1.651620  8.031450
92   1  0.7328 12.476500  5.586370  8.045400
93   1  0.8013 14.571800  8.739660  8.088700
94   1  0.8376 16.195000 12.251900  8.282440
95   1  0.7369 14.834300  1.722280  8.120830
96   1  0.7537 16.755900  5.062710  8.236760
97   1  0.7878 16.198200 14.700500 11.419100
98   1  0.8222  1.463060 18.223600 11.594000
99   1  0.6993 16.771000  8.168030 11.869500
100  1  0.8001  2.095830 10.857000 11.757000
101  1  0.7504  3.877000 14.391900 11.738200
102  1  0.7282  5.904930 18.357600 11.676800
103  1  0.8223  0.039608  0.062498 11.199900
104  1  0.7905  2.389710  3.741580 11.458000
105  1  0.8409  3.901270  7.125800 11.205600
106  1  0.7871  6.001750 11.192800 11.612300
107  1  0.7902  8.263250 14.455200 11.479800
108  1  0.8416 10.137900 18.600100 11.598200
109  1  0.8049  3.719330  0.051622 11.846800
110  1  0.7972  6.394310  3.767580 11.578200
111  1  0.7876  8.094890  7.679950 11.679400
112  1  0.7704 10.661000 11.313300 11.442800
113  1  0.7660 12.348100 14.995300 12.037800
114  1  0.7505 14.301900 18.665000 11.480200
115  1  0.8070  8.491430  0.364284 11.925600
116  1  0.7725 10.668800  3.979170 11.417700
117  1  0.7118 12.514900  7.533300 11.907600
118  1  0.7147 14.711800 11.014300 11.369100
119  1  0.8459 12.588800 21.891500 11.880000
120  1  0.7020 14.661800  3.906350 11.460600
121  1  0.7207 16.697000 14.579900 18.184500
122  1  0.6974  2.302940 17.803500 18.116000
123  1  0.7182  0.028622  7.077040 18.472400
124  1  0.7466  2.011680 10.791800 18.770800
125  1  0.7630  4.265370 14.594800 18.549300
126  1  0.7064  6.279640 18.870400 17.628900
127  1  0.7405 16.729200 21.803500 18.445800
128  1  0.7225  2.136100  3.558650 18.102400
129  1  0.6387  4.149680  7.349210 18.362400
130  1  0.7143  6.282530 11.248200 18.502500
131  1  0.8191  8.625700 14.812500 18.065300
132  1  0.8038 11.030900 18.412400 18.308400
133  1  0.7307  3.624850 -0.027054 18.217700
134  1  0.7067  6.785270  3.435390 18.510200
135  1  0.7797  8.188480  7.551900 17.912400
136  1  0.7975 10.919300 11.295600 17.895500
137  1  0.7324 13.028800 14.705600 18.175700
138  1  0.8058 15.052300 18.352600 18.327100
139  1  0.7922  8.512860  0.219320 17.898800
140  1  0.7836 10.543000  4.292820 18.195200
141  1  0.8199 12.634800  7.481470 18.431200
142  1  0.8034 14.798200 11.115400 18.078700
143  1  0.7653 12.893500 -0.044204 18.174100
144  1  0.7902 14.672200  3.571840 18.232200
145  2 -0.8063 16.525100 14.729100  0.320456
146  2 -0.9003  1.849670 18.458600  0.255013
147  2 -0.8541 16.600100  7.598860  0.048673
148  2 -0.7953  1.355100 10.919600 29.742300
149  2 -0.8095  3.825530 14.701400 29.859300
150  2 -0.8750  6.039140 18.473100  0.007550
151  2 -0.8988 16.627000 21.862200  0.151329
152  2 -0.8698  1.812190  3.734830 29.943700
153  2 -0.9064  4.119140  7.651620  0.032690
154  2 -0.8286  6.290150 11.325200  0.410276
155  2 -0.8172  7.826330 14.850900  0.178169
156  2 -0.8563 10.353400 18.180600  0.061207
157  2 -0.8344  3.998830  0.056168  0.247322
158  2 -0.9308  6.263330  4.032240 29.991800
159  2 -0.8320  8.352090  7.619560  0.351464
160  2 -0.8286 10.395500 11.416100 29.777600
161  2 -0.8140 12.948700 14.327400 29.785500
162  2 -0.7882 14.267400 17.940300  0.597725
163  2 -0.8972  8.410650 -0.033834 -0.103232
164  2 -0.8960 10.489200  3.761210  0.380704
165  2 -0.9291 12.528800  7.401570  0.228063
166  2 -0.8154 14.699400 10.881100 29.924600
167  2 -0.8893 12.155200 21.795800 29.699100
168  2 -0.9043 14.167100  3.899050 29.867900
169  2 -0.4058  1.850710 15.930700 26.537300
170  2 -0.3366  3.605000 19.934400 26.341100
171  2 -0.3546  1.943760  8.013160 26.446200
172  2 -0.3334  3.581550 12.518200 26.102500
173  2 -0.3849  6.124230 15.631000 26.227100
174  2 -0.4165  8.490170 19.460500 26.558400
175  2 -0.3114  2.075780  1.076260 26.608600
176  2 -0.2678  4.051050  4.803190 26.273200
177  2 -0.2753  5.946340  8.511380 26.088400
178  2 -0.2784  8.401970 12.063300 26.242300
179  2 -0.3216 10.003900 16.126100 26.168100
180  2 -0.3733 12.670700 19.674400 26.087700
181  2 -0.2971  6.217650  1.095990 26.105900
182  2 -0.3261  8.251050  4.875040 26.529400
183  2 -0.2629 10.315100  8.386610 26.496500
184  2 -0.4113 12.796500 11.898600 26.491800
185  2 -0.3509 14.882700 16.097300 26.339300
186  2 -0.2649  0.370153 19.178400 26.141200
187  2 -0.3753 10.692800  1.203600 26.397000
188  2 -0.3521 12.092000  5.042430 26.619600
189  2 -0.2894 13.820800  8.438370 26.345300
190  2 -0.3523 16.643500 11.954000 26.338700
191  2 -0.3460 14.782200  1.045300 26.227500
192  2 -0.3453 16.129600  5.280840 26.288200
193  2 -0.4175 16.736900 14.094800 23.338800
194  2 -0.3276  2.220720 18.287000 23.314000
195  2 -0.3383 16.515900  7.550250 23.429800
196  2 -0.2983  2.156220 10.801300 23.789000
197  2 -0.3389  3.913330 14.524700 23.532500
198  2 -0.3558  5.913730 18.776000 23.732700
199  2 -0.3457  0.085422 21.512700 23.686200
200  2 -0.4097  1.962320  3.824330 23.290400
201  2 -0.2991  4.247610  6.838420 23.410100
202  2 -0.4313  6.396160 10.787000 23.239400
203  2 -0.2532  8.561500 14.706000 23.622400
204  2 -0.3085 10.639400 18.540700 23.639900
205  2 -0.2663  3.922360  0.247057 23.544000
206  2 -0.3103  6.300100  3.753130 23.550900
207  2 -0.3558  8.492030  7.110390 23.321700
208  2 -0.3101 10.573900 10.442000 23.307800
209  2 -0.4009 12.748800 14.646300 23.669500
210  2 -0.3612 14.957500 18.386400 23.473700
211  2 -0.3720  8.508320 21.574700 23.587900
212  2 -0.3660 10.266000  3.324040 23.606900
213  2 -0.3542 12.694200  7.195360 23.314300
214  2 -0.3870 14.582800 11.133800 23.243400
215  2 -0.2627 12.920300 -0.057768 23.714700
216  2 -0.3183 14.589500  3.199060 23.687700
217  2 -0.8194  1.758870 12.897700  9.983060
218  2 -0.8530  3.739390 17.026800 10.245000
219  2 -0.9023  2.136260  6.136310  9.769670
220  2 -0.8230  3.828300  9.624490  9.845810
221  2 -0.9187  6.350100 13.438600  9.806360
222  2 -0.8370  8.297910 17.584300  9.872410
223  2 -0.9311  2.171240 20.924000  9.935100
224  2 -0.9409  4.475670  2.419420  9.904250
225  2 -0.9429  6.177320  6.197240  9.773680
226  2 -0.8106  8.381410 10.131500  9.716540
227  2 -0.8228 10.149200 13.740600  9.896460
228  2 -0.8730 11.961100 17.498300 10.116100
229  2 -0.7830  6.507940 21.457200 10.125700
230  2 -0.8437  8.835650  2.852340  9.818450
231  2 -0.8384 10.535900  6.673690  9.788530
232  2 -0.8476 12.494600  9.911370  9.716380
233  2 -0.8771 14.529500 13.673800  9.593630
234  2 -0.9058 16.307800 17.205000  9.761780
235  2 -0.8149 10.396400 20.972700  9.880950
236  2 -0.8222 12.421800  2.458230  9.817060
237  2 -0.9049 14.562800  6.491400  9.704060
238  2 -0.9277 16.759300  9.965320  9.781810
239  2 -0.8918 14.579300 21.269100  9.860120
240  2 -0.8561  0.207017  2.615600  9.946880
241  2 -0.3414  0.004816 15.231900  6.516350
242  2 -0.2597  2.229360 18.558300  6.536750
243  2 -0.3509  0.000371  7.556750  6.469670
244  2 -0.2678  1.639290 11.311800  6.359040
245  2 -0.3524  3.587070 15.225000  6.535480
246  2 -0.2410  6.131560 18.766500  6.192420
247  2 -0.2461  0.216235  0.244136  5.849260
248  2 -0.2550  2.121390  3.583010  6.125150
249  2 -0.2272  4.059060  6.940220  6.400360
250  2 -0.3921  5.612200 10.469300  6.270070
251  2 -0.3999  8.151770 15.257300  6.384550
252  2 -0.3876 10.142000 19.176500  6.494680
253  2 -0.4033  4.461380 -0.114193  6.579710
254  2 -0.3783  6.342450  3.925260  6.484480
255  2 -0.3271  8.152260  7.264850  6.219170
256  2 -0.4044 10.504400 10.962700  6.261800
257  2 -0.4217 12.275500 15.084100  6.854530
258  2 -0.3649 14.437400 18.843500  6.302440
259  2 -0.3735  8.507960  0.717116  6.413660
260  2 -0.3417 10.216200  4.261460  6.309060
261  2 -0.3351 12.574500  7.687740  6.103020
262  2 -0.3824 14.327800 11.398100  6.556930
263  2 -0.3551 12.952600  0.196323  6.524600
264  2 -0.3350 15.188000  4.195980  6.201690
265  2 -0.3335  1.994950 13.916600  3.829650
266  2 -0.3205  4.338870 17.309300  3.593590
267  2 -0.3470  2.256710  6.274470  3.300640
268  2 -0.4696  3.478700 10.009500  3.341270
269  2 -0.4025  5.581720 13.806700  3.822740
270  2 -0.3656  7.883690 17.481500  3.666450
271  2 -0.2891  2.267890 20.511400  3.693660
272  2 -0.2495  4.451900  2.557540  3.414580
273  2 -0.3314  5.994980  6.231890  3.336550
274  2 -0.3775  8.824780  9.773090  3.121510
275  2 -0.3240 10.424300 13.891100  4.203070
276  2 -0.3543 12.320300 17.364300  3.818030
277  2 -0.2446  6.122520 21.359600  3.546790
278  2 -0.3745  8.124420  2.699170  3.167350
279  2 -0.3095 10.201100  6.341150  3.569870
280  2 -0.4563 12.099600 10.106400  3.110100
281  2 -0.3280 14.583000 13.244700  3.846110
282  2 -0.2748 16.727000 17.830800  4.176170
283  2 -0.3074  9.930970 21.332400  3.653680
284  2 -0.3415 12.516700  2.283310  3.263620
285  2 -0.3026 14.773300  6.461990  3.522580
286  2 -0.3463 16.466800  9.885230  3.616890
287  2 -0.3479 14.486500 21.188500  3.276680
288  2 -0.2825 16.565900  2.637050  3.322470
289  2 -0.8496  2.395680 15.497200 20.321600
290  2 -0.8081  4.032860 19.512900 20.177500
291  2 -0.8619  1.743910  8.643220 20.556600
292  2 -0.8464  3.657470 12.252700 20.458700
293  2 -0.7782  6.507210 15.794300 19.719600
294  2 -0.8378  8.583090 19.878100 19.614900
295  2 -0.8292  1.928800  1.161090 20.031800
296  2 -0.9023  4.412880  4.801690 19.923600
297  2 -0.9673  6.344460  8.621460 20.042300
298  2 -0.8017  8.223850 12.359200 20.065100
299  2 -0.7998 10.516500 16.030900 19.974900
300  2 -0.8722 12.926100 19.441000 19.984000
301  2 -0.7785  6.067430  1.036680 20.246300
302  2 -0.9417  8.653010  5.234630 20.034200
303  2 -0.8463 10.621300  8.791760 19.548400
304  2 -0.9695 12.740000 12.149500 19.608900
305  2 -0.9569 14.797200 16.047500 19.906100
306  2 -0.8426  0.169333 19.112600 20.131400
307  2 -0.8356 10.640500  1.366090 19.429600
308  2 -0.8985 12.802000  4.992060 20.029000
309  2 -0.8711 14.958600  8.705440 19.820700
310  2 -0.8652 16.703900 12.178500 20.156100
311  2 -0.8814 14.934200  0.864700 20.193600
312  2 -0.8580 16.588300  4.406930 19.895600
313  2 -0.3121  2.340040 13.351900 16.679500
314  2 -0.3188  3.996650 16.651400 16.169900
315  2 -0.2319  2.316000  6.442810 15.860100
316  2 -0.3331  4.065720  9.923960 16.628300
317  2 -0.3094  6.238910 13.750900 16.540400
318  2 -0.3314  8.984920 17.107500 16.543000
319  2 -0.3775  1.572010 20.493900 16.537300
320  2 -0.3234  4.754280  2.497270 16.580600
321  2 -0.2632  6.824540  5.595170 16.224200
322  2 -0.2948  8.113470  9.961490 16.172200
323  2 -0.3759 10.924600 13.880200 16.354000
324  2 -0.2899 12.774500 17.219300 16.403400
325  2 -0.4146  6.366010 21.393400 16.390300
326  2 -0.2352  8.853640  3.011350 16.077600
327  2 -0.4189 10.538800  6.561070 16.707000
328  2 -0.3305 12.707100 10.011100 16.330200
329  2 -0.3606 15.165900 13.700400 16.261200
330  2 -0.3129 16.488900 17.318800 16.403500
331  2 -0.3057 10.345500 21.074400 16.248900
332  2 -0.3094 12.301800  2.323540 16.485600
333  2 -0.3789 14.758100  6.555900 16.787600
334  2 -0.2964  0.122153  9.286090 16.542500
335  2 -0.3312 14.373500 20.526100 16.455300
336  2 -0.3737  0.045257  2.264480 16.695100
337  2 -0.3897  1.755380 15.967100 12.869900
338  2 -0.3902  3.684410 19.613100 13.240100
339  2 -0.4016  2.355300  8.649590 13.242000
340  2 -0.3114  4.669170 12.225800 13.574100
341  2 -0.2777  5.823310 15.482600 13.561200
342  2 -0.3850  7.988670 19.630700 13.360200
343  2 -0.3712  1.675090  1.329260 13.112500
344  2 -0.3948  4.267120  4.542440 13.127100
345  2 -0.4633  5.911150  8.651750 12.622400
346  2 -0.3349  8.291160 12.827700 13.438600
347  2 -0.3230 10.680200 16.527300 13.521700
348  2 -0.4003 12.513700 19.763100 13.285100
349  2 -0.2851  6.583560  1.581520 13.650400
350  2 -0.3747  8.447690  4.992690 13.136900
351  2 -0.3454 10.245900  9.380600 13.341500
352  2 -0.4166 12.811800 12.309300 13.139200
353  2 -0.3128 14.766200 16.048500 13.371900
354  2 -0.3421 16.294400 19.672400 13.088500
355  2 -0.3675 10.986300  1.622510 13.219300
356  2 -0.3198 12.872800  5.035270 13.728000
357  2 -0.3249 14.954000  9.109160 13.772400
358  2 -0.3583 16.600000 12.624900 13.169200
359  2 -0.3305 14.959100  1.145530 12.925800
360  2 -0.2110  0.313118  4.452880 13.849500

