Generated by pymatgen.io.lammps.data.LammpsData

320  atoms

  2  atom types

0.000000 16.864293  xlo xhi
0.000000 23.165087  ylo yhi
0.000000 24.472453  zlo zhi

Masses

1  208.9804
2   78.9600

Atoms

1    1  0.7262  4.629410 13.273400  4.502860
2    1  0.8142 10.980800 11.415000  0.330569
3    1  0.6311  0.987972  4.032060 15.924500
4    1  0.7720  0.377942  2.887710 20.388000
5    1  0.7964  7.090150 15.285400 13.911900
6    1  0.7358  5.353990 14.108500 17.122800
7    1  0.5216  7.895010 -0.167453 14.103000
8    1  0.5548  2.909400  5.170980 17.972300
9    1  0.8882 13.972600 10.757400 10.517300
10   1  0.5725  5.140420 12.292300 23.910500
11   1  0.8038 11.133000  1.909970 12.541500
12   1  0.8040 15.730900 21.840900  1.716110
13   1  0.8389  1.976690  9.691300  4.532130
14   1  0.8512  5.380650  7.639750 24.702300
15   1  0.5686 16.565500 19.066600 10.552500
16   1  0.7294  2.765550  0.892237 24.646700
17   1  0.7348  5.117920  1.011180  4.913080
18   1  0.6852 14.307200  5.887900  8.245810
19   1  0.7514  6.905940  7.740280  3.567210
20   1  0.5222  2.503860  2.241600  7.990930
21   1  0.7759  7.019890  1.285450  8.887880
22   1  0.7294 11.898700  0.785565 22.567300
23   1  0.7180  9.940560 11.338600  4.212730
24   1  0.8856  5.888530 11.701900 12.060100
25   1  0.6949  5.474120  5.097450  5.248070
26   1  0.8594  0.039218  0.400810 14.096100
27   1  0.7715 11.199700 11.579100  8.157120
28   1  0.8644  7.799650 12.039700 16.018200
29   1  0.6877 11.863800  7.822900 22.954700
30   1  0.7543  3.651150 22.868100 11.861400
31   1  0.6354  0.401270  5.997750 -0.132933
32   1  0.7638  0.642855  6.459430 10.083200
33   1  0.5512  5.851850  8.248970  7.293410
34   1  0.7749  3.420020  0.519573 20.542300
35   1  0.5968  0.697142 13.980800  9.348280
36   1  0.7584  2.892800 20.179000  0.636644
37   1  0.6691 15.980700  3.316880  5.681500
38   1  0.5601  7.483640 11.517600 21.326600
39   1  0.7105  8.714160 17.839800 10.575200
40   1  0.8308  3.110560 20.168700  4.654520
41   1  0.6525 12.186000 18.535400 11.026400
42   1  0.7071  4.493640  7.073250 15.887000
43   1  0.6421 10.228100 20.884900 12.265200
44   1  0.6381  7.311810 16.352600 21.345700
45   1  0.7707 14.487600  8.572140  1.816960
46   1  0.8188 12.590900  4.345510 20.604500
47   1  0.6600  2.244830 18.810200  8.478080
48   1  0.8096  1.340840 10.796900 12.576700
49   1  0.8000 13.379200 10.484300  5.348970
50   1  0.7352  4.375410  3.530520 14.007600
51   1  0.7619  8.809480 19.196900  7.030320
52   1  0.7092  5.291860 18.287900 15.676200
53   1  0.7099 10.183500  7.238230  5.956960
54   1  0.8794  7.505930  8.272040 14.421900
55   1  0.7942  3.747070 15.443800  1.044270
56   1  0.7658  8.892390 17.817000 18.994500
57   1  0.7456 10.638800  9.184680 13.235700
58   1  0.8167  3.836790 11.450000 15.829700
59   1  0.8089  8.035160 21.198300  4.176820
60   1  0.6581 11.180300 21.753900 16.736600
61   1  0.6518 13.261700  6.329830  4.730670
62   1  0.7754 11.565500  6.512050 15.862200
63   1  0.8196  2.388250  5.437140  2.735630
64   1  0.7868  6.334250 21.847500 22.509400
65   1  0.6279  4.471430  2.837560 10.395800
66   1  0.8903 13.186200 22.455500  5.255220
67   1  0.5022  9.619280 16.901500  4.033070
68   1  0.8696 11.756300 10.175800 17.196500
69   1  0.7783  6.387480 20.589700  9.549240
70   1  0.7701  0.083627 21.478200  5.728200
71   1  0.7716  7.468510 14.240700  1.098630
72   1  0.7687  7.965610 20.646100 18.371900
73   1  0.7276  8.124360  4.823110 13.563100
74   1  0.8173  4.691210  3.997360 23.274400
75   1  0.6967 11.003900 17.243900 -0.016586
76   1  0.7650  9.154400 18.148900 14.895800
77   1  0.6797 12.425500  3.222070  3.303030
78   1  0.7344  7.806170  1.091860 20.314800
79   1  0.7682 12.120700 15.739700  9.501590
80   1  0.8048  3.543390  7.432820 12.055900
81   1  0.6850  1.857130  5.529890  6.821560
82   1  0.7983  4.453830 10.104700 19.122600
83   1  0.6756 15.687100 22.635300 10.705600
84   1  0.5845  8.966140  2.432680 15.644100
85   1  0.6240  7.011240 10.829400  6.051040
86   1  0.5104  4.590480 12.993200 21.122100
87   1  0.8130 10.162200 22.698200  7.685210
88   1  0.8056 10.312200 22.658800  1.332470
89   1  0.8321  9.176890  2.875860  5.248970
90   1  0.8024 15.307100  7.736880 13.641900
91   1  0.7733 12.242200  2.428260  7.915150
92   1  0.7173 13.182200 22.191700 13.776900
93   1  0.7021 15.899900 14.490200  7.123820
94   1  0.8797  8.556260  8.346870 18.022600
95   1  0.8503  6.347740 18.786400  1.853640
96   1  0.5914 10.450500  1.639230 18.072100
97   1  0.6568  1.849980 22.234500  8.633480
98   1  0.6710  5.117430  6.314630 20.074000
99   1  0.5806  3.738760 11.304500  7.705770
100  1  0.7680  0.653820 18.379900  2.961680
101  1  0.8000 10.707000  6.858940 10.039900
102  1  0.7044  1.656310  0.668177  3.442580
103  1  0.8110  4.532190 17.987200 11.968200
104  1  0.7776  9.341340 20.341200 23.324500
105  1  0.8197  8.613620 14.460800  9.158020
106  1  0.6406 10.389300  6.332650  1.521180
107  1  0.6417  5.346170  2.125750 17.802200
108  1  0.7668 13.298600 18.395600  2.949460
109  1  0.6938 13.878500  4.682100 12.925700
110  1  0.7625  8.367440  7.950170 21.876200
111  1  0.6042 11.473700 14.619700  4.499660
112  1  0.7789 14.782200 18.366500  7.199570
113  1  0.6323  2.282560  7.406690 21.783100
114  1  0.8123  9.618590 12.709900 12.504300
115  1  0.7231  2.129080  9.037100  0.665012
116  1  0.6796  3.557020 15.077000 13.475300
117  1  0.7520 15.437500  2.948280 -0.026406
118  1  0.5762  4.983920 22.737400 14.785800
119  1  0.6607  6.222250 15.748000  5.106350
120  1  0.8254  8.646020  9.494900 10.258200
121  1  0.7924  6.166280  1.896820  1.521340
122  1  0.7284 14.368100  3.352700 16.282700
123  1  0.5618  9.253360 14.348500 22.340000
124  1  0.7023  4.525110 14.731900  9.407630
125  1  0.7558  9.060400  4.325300 23.461800
126  1  0.8694  6.793240  6.164110 10.615600
127  1  0.6131  2.812490 15.918400  6.178760
128  1  0.8172 -0.424910  9.353130  7.641390
129  2 -0.4601 16.689700  3.834130 13.747700
130  2 -0.4667 14.296700  2.412340 19.116800
131  2 -0.4940 14.868900 16.127600  5.466520
132  2 -0.3181  1.668290 11.701700  1.855610
133  2 -0.6416  6.643960  2.938510  6.538540
134  2 -0.6297  3.405530  3.321110  1.087900
135  2 -0.8816  7.061340 17.618500 12.815300
136  2 -0.3695  4.759760 16.010900 19.646700
137  2 -0.5868 14.739000  1.345570 12.699800
138  2 -0.4191  7.674980  5.375830 19.351300
139  2 -0.4746 16.202500  1.445630 16.473000
140  2  0.0337 15.305600 13.724900 15.898800
141  2 -0.9198 10.829200  0.260167 14.634600
142  2 -0.3493 -0.764482  5.322450 18.769100
143  2 -0.6221 16.505100 11.568600  9.855010
144  2 -0.0045  0.454488 17.935400 15.930000
145  2 -0.4199  5.738100  9.839200  1.798680
146  2 -0.0286 10.848200 15.461100 15.145600
147  2  0.0131 13.644000 13.942900 13.484800
148  2 -0.6240  2.569850  1.319790 13.817000
149  2 -0.5194 12.312100  3.438130 24.144500
150  2 -0.8139  8.082260 10.726800 12.685400
151  2 -0.7039  5.358960  1.537030 23.236600
152  2  0.0128 12.483600 14.067100 18.273300
153  2 -0.4695 11.121600  7.783740 18.547900
154  2 -0.6987  2.134370 13.120800  6.401090
155  2 -0.5798 12.825500  4.374540 10.219100
156  2 -0.7892  8.720010  7.379200 12.195900
157  2 -0.3965 16.498200 11.149800  5.437260
158  2 -0.4482  9.191230 14.046200 15.176500
159  2 -0.8707  1.189550 21.164800  2.526460
160  2 -0.0441  0.908023 14.436500 19.254200
161  2 -0.2956  1.962430  8.933240 16.063600
162  2 -0.7136  3.463900 18.606600  2.581060
163  2 -0.6999  3.482580 20.155200 10.937000
164  2 -0.0395 13.131700 18.905900 18.799500
165  2 -0.6839  1.866030  7.935570  8.483480
166  2 -0.4646  8.755780 14.828500 19.263300
167  2 -0.6059  9.131800  0.387747 11.583000
168  2  0.0224 14.534800 16.801500 14.583800
169  2 -0.5268 14.715000  8.589580  4.324060
170  2 -0.0102 13.764100 14.778600 23.104800
171  2 -0.6398  9.775390  2.430800 21.224400
172  2 -0.3906 11.253500 17.688100 21.542400
173  2 -0.3732  1.696750 13.162000 15.328500
174  2 -0.7807  5.933420 15.051300 23.420500
175  2 -0.8024  7.308010 20.102900 15.721000
176  2 -0.0087 14.504200 19.142000 16.219800
177  2 -0.5802 15.211300  4.465030 22.270600
178  2 -0.0734 12.132800 13.091600 16.506500
179  2  0.0394 16.575900 17.941400 17.970800
180  2 -0.6539 11.800000  8.459880  3.549750
181  2 -0.6361  8.258470 19.713200 20.747000
182  2 -0.7832  5.496510  6.251690 13.502200
183  2 -0.7358  4.500390 10.614400  4.828540
184  2 -0.7354  6.386410 12.191800 18.605300
185  2 -0.3602 12.528000 20.847000  8.271540
186  2 -0.6259 14.766300  5.914170 15.442100
187  2  0.0166 15.822900 16.445100 24.038100
188  2  0.0059 16.058800 15.270700 17.051300
189  2 -0.5955 14.422700  1.066080  7.285700
190  2 -0.0253  0.630349 17.735300 21.664300
191  2 -0.4206 12.202400 18.519500  5.697350
192  2  0.0210 15.836900 10.324500 17.010400
193  2 -0.5374 10.665200 20.950200  5.186990
194  2 -0.6655  5.853260  9.356880 16.544600
195  2 -0.7655  2.905560 22.660000  5.633630
196  2 -0.5130 11.693800  4.527160 17.881800
197  2 -0.4283 13.151200 16.157000  1.808420
198  2 -0.0489 16.021200  8.457830 17.069100
199  2 -0.7274  4.734320 -0.181536  9.233340
200  2 -0.3403 14.331600 22.091700 16.428500
201  2 -0.6304 10.171200 15.677600 11.672200
202  2 -0.8265  6.415520  8.722870 20.029400
203  2 -0.7507  6.559530 14.208900  7.201080
204  2  0.0151 15.380400 19.368500 21.133200
205  2 -0.6268  5.329360 17.796300  9.739660
206  2 -0.5891  4.302660  9.854760 13.613300
207  2 -0.4871 16.363900  0.465598 23.840000
208  2 -0.5500 10.264900 22.018000 19.771600
209  2 -0.6347 10.164800 19.190500  2.158580
210  2 -0.3743  3.088510 16.416400 16.509800
211  2 -0.1539  0.169110 15.700400  2.196150
212  2 -0.0509 16.936300 11.192600 21.893700
213  2 -0.8126  7.679790  0.576825 17.577000
214  2 -0.4840 13.139100 23.681700  1.655790
215  2 -0.5909 12.339000  8.710850  7.393110
216  2 -0.6461  7.286150 16.490800 16.519500
217  2 -0.1576 -0.077593 15.402000 12.962200
218  2 -0.6197  1.670250  2.404580 22.629500
219  2 -0.2537  1.625200 14.288100 23.755100
220  2 -0.0982 15.162200 11.657700  2.092250
221  2 -0.6437 15.763100  0.703258  4.265970
222  2 -0.6609  8.269540  7.280530 24.299000
223  2 -0.7064  4.970820  5.689650  8.649840
224  2 -0.6246  8.642590  6.548200 16.010000
225  2 -0.6760  7.727850  5.310300  3.943830
226  2 -0.6386 12.773800  8.922600 15.137100
227  2 -0.6441  6.684360 18.553800  4.671150
228  2 -0.1119 13.263900 11.277200 19.731400
229  2 -0.5534  5.790520 21.928300 19.873000
230  2 -0.7958  5.782170  3.890960 16.051700
231  2 -0.8586 16.512400 20.305900  8.175900
232  2 -0.4105  2.281390 21.124300 13.968700
233  2 -0.4691  9.390210  9.527160  2.083670
234  2 -0.0627  2.221080 16.585300 21.589800
235  2  0.0130 14.406300 16.531500 20.392600
236  2 -0.6271 10.511800 14.075200  0.486637
237  2  0.0698 15.726400 12.265000 23.803200
238  2 -0.7400  9.257600  9.871530 15.752400
239  2 -0.0446 13.611600 19.129100 22.087700
240  2  0.0421  2.292720 18.621800 19.002600
241  2 -0.6823 15.195200  8.161590  9.902720
242  2 -0.0318 16.118700 21.992300 19.175400
243  2 -0.6181  2.970960  7.404560  5.192670
244  2 -0.6634  7.343580 13.074900  3.556160
245  2 -0.5530 16.370800  3.676420  8.824100
246  2 -0.7944  3.300300  6.248160 24.391900
247  2 -0.5995  7.488080 21.644900  7.160060
248  2 -0.5531  8.194860  0.826385  4.347360
249  2 -0.6410  8.310640  7.075270  8.546400
250  2 -0.5930  4.776970  6.642860  2.792510
251  2 -0.6277 11.976500 19.192300 13.466500
252  2 -0.4753 15.625400 19.201400  0.821742
253  2 -0.7415 11.964800  9.244830 10.955200
254  2 -0.5204 -0.426852  8.225880 23.313600
255  2 -0.7294 11.535100  1.373050  4.793600
256  2 -0.0619 13.167800 15.487500 19.547700
257  2 -0.6057  8.705870 -0.057152 23.178200
258  2 -0.2986  9.894490 12.150900 18.629900
259  2 -0.7548  1.178890 18.182900  6.018320
260  2 -0.2936  3.996390 20.776500 16.930200
261  2 -0.5940 13.773200 12.434500  7.679520
262  2 -0.5828  6.008130  8.635620 10.894900
263  2 -0.6525  2.935970  7.661120 18.677300
264  2 -0.5352  2.247270  4.914690 12.079900
265  2 -0.7202 10.403200 14.265900  7.460100
266  2 -0.6253  3.140750 15.281500  3.717110
267  2 -0.5536 16.386800  7.021430  6.291260
268  2 -0.3831 15.643500 19.835400 13.400300
269  2 -0.3836 13.500700 10.011800 23.624700
270  2 -0.7035  2.719410 16.242200 11.186200
271  2 -0.5508  2.120080  1.604850 18.146000
272  2  0.0371 13.441900 16.657400 17.047000
273  2 -0.4602 12.188600 21.242900 23.995600
274  2 -0.7578  2.001090  3.266990  4.797220
275  2 -0.6455  0.841360  7.996830 12.858600
276  2 -0.6865  6.244560 16.313900  2.296110
277  2 -0.7848 11.171800  4.089840 14.105800
278  2 -0.4764  9.321620  2.252910  1.699110
279  2 -0.0168  3.619910 18.983400 20.763300
280  2 -0.5101 12.115400 13.247900 10.436100
281  2 -0.8390  3.851300  4.088360 20.192800
282  2 -0.6599 14.882800 20.381400  4.671200
283  2 -0.6588 10.427800 17.633100  8.284660
284  2 -0.5356 12.283300 12.583200  3.029170
285  2 -0.6095  9.573460  2.211750  7.771010
286  2  0.0389  0.390077 20.948000 17.862200
287  2 -0.7244  9.408040 20.316100  9.750180
288  2 -0.0177 14.385300  9.413460 20.022700
289  2 -0.4662  0.066468  7.406070  3.011730
290  2 -0.6637  4.699250 22.701000  2.736700
291  2 -0.6944  6.464590 14.481600 11.115500
292  2 -0.6870  3.291560 12.392300 10.899300
293  2 -0.4493  8.802670  3.667610 11.074200
294  2 -0.5178  6.446070  4.679990  0.565394
295  2 -0.8086  9.487150 10.078700  6.416550
296  2 -0.5178 10.492300 18.797000 17.009700
297  2 -0.6806 11.308600  5.419490  7.389820
298  2 -0.0737 13.109200 13.090900 22.046600
299  2 -0.6191  1.488540  1.166010 10.507700
300  2 -0.4870  2.939000 11.900500 18.544200
301  2 -0.6640 13.063200  5.740200  1.904200
302  2  0.0316 16.224400 13.630900 19.331900
303  2 -0.4543  4.390820 20.100800  7.187170
304  2 -0.5695 10.187200 10.051800 21.791100
305  2 -0.5124 15.749500  4.242070  3.038000
306  2 -0.6372 10.319600  5.902670 21.713000
307  2 -0.6681 15.106400 16.073200  9.417470
308  2 -0.5615  3.148400 21.860700 22.754500
309  2 -0.8000  5.619320  1.775750 12.443300
310  2 -0.7900  3.615520  9.509920 23.251600
311  2 -0.6534  7.795250 11.624600  9.232980
312  2 -0.5975  7.758520 21.526900  1.261040
313  2 -0.3683 11.988500 11.758800 13.481700
314  2 -0.9326  5.594660 13.309200 14.610800
315  2 -0.5824 12.819500 21.898800 11.031800
316  2 -0.3347  5.280140 18.988100 22.942300
317  2 -0.0206  0.532624  9.870920 20.127300
318  2 -0.6392  7.803350 11.799400 24.242000
319  2 -0.3130 15.477600 10.619700 13.659100
320  2 -0.6160  8.137820 17.763300 -0.268047

