Generated by pymatgen.io.lammps.data.LammpsData

216  atoms

  2  atom types

0.000000 18.096178  xlo xhi
0.000000 18.140645  ylo yhi
0.000000 18.233787  zlo zhi

Masses

1  208.9804
2   78.9600

Atoms

1    1  0.7299 18.106700 18.031900  0.177751
2    1  0.7510 18.164300 18.152300  5.837130
3    1  0.8347  0.102643  0.173460 12.012600
4    1  0.7993  0.265046  6.288940 18.099000
5    1  0.7600  0.506025  5.884550  6.007690
6    1  0.7889  0.583621  5.780080 12.253500
7    1  0.7985  0.461792 12.244300 18.050900
8    1  0.7811  0.425055 12.191100  6.308670
9    1  0.7667  1.029290 11.885200 11.992100
10   1  0.7118  6.270990 17.498900 17.756000
11   1  0.8263  6.361780 18.071500  6.089520
12   1  0.7764  6.281280 17.882600 12.422000
13   1  0.7534  6.190390  5.998320  0.632845
14   1  0.7992  6.166720  6.303900  6.171070
15   1  0.8445  6.190230  5.697590 11.753400
16   1  0.8144  6.770530 12.054800  0.285381
17   1  0.8925  6.744910 12.226800  5.769160
18   1  0.8074  6.733410 11.280000 12.061600
19   1  0.7874 12.191300 17.748500 18.185600
20   1  0.7878 12.048400 18.177000  6.096650
21   1  0.7603 12.027700 18.032100 11.881900
22   1  0.7925 12.513600  5.956190 18.009700
23   1  0.7303 12.311900  6.407110  6.422920
24   1  0.7961 12.590000  6.297880 12.369500
25   1  0.7074 12.681300 11.744300 17.839400
26   1  0.7599 12.680900 12.433700  6.207300
27   1  0.7479 12.377800 12.180000 12.000900
28   1  0.8046  0.393551  2.987680  2.924420
29   1  0.7513  0.375902  3.043390  8.588760
30   1  0.8415  0.708640  3.583290 15.231000
31   1  0.7785  0.346540  9.041420  2.824630
32   1  0.7490  0.454523  8.878190  9.271680
33   1  0.8456  0.739044  9.159970 15.162300
34   1  0.7384 17.897400 15.296900  2.813550
35   1  0.7604  0.347965 15.509000  9.309640
36   1  0.7849  0.486793 15.317600 15.582600
37   1  0.8202  6.268610  3.269310  3.039640
38   1  0.8883  6.224160  2.867710  9.597790
39   1  0.7522  6.129480  3.038110 15.481900
40   1  0.7680  6.158170  8.674540  2.771900
41   1  0.7268  6.198350  8.865730  8.665270
42   1  0.7993  6.512030  9.093120 15.190600
43   1  0.8088  6.289490 15.232600  2.891630
44   1  0.7476  6.304040 14.808000  9.600690
45   1  0.8008  6.772720 14.953300 15.075400
46   1  0.7408 12.580300  3.150310  3.072050
47   1  0.7500 12.291300  3.003110  8.955420
48   1  0.8273 12.394500  3.195470 15.196100
49   1  0.8315 12.771100  8.902550  3.513980
50   1  0.7809 12.191200  8.837160  9.244120
51   1  0.6662 12.499300  9.218500 15.325600
52   1  0.8512 12.459700 14.881100  3.114970
53   1  0.7381 12.233700 14.793500  8.507470
54   1  0.8312 12.638000 15.423900 15.008400
55   1  0.7519  2.888470 18.027200  2.799770
56   1  0.8254  3.262720 18.017100  8.630520
57   1  0.7387  3.519710 18.106900 14.896600
58   1  0.8569  3.077930  6.160930  3.472710
59   1  0.7338  3.193380  5.885080  8.912890
60   1  0.7645  3.515520  5.895010 15.216500
61   1  0.8588  3.937790 11.722400  2.979230
62   1  0.7566  3.450600 12.593800  8.630080
63   1  0.8967  3.508420 12.046900 15.255300
64   1  0.7391  9.390810  0.176654  3.174980
65   1  0.7471  9.049210  0.061555  9.180630
66   1  0.7583  9.072350  0.112571 15.360900
67   1  0.8375  9.382010  5.949760  3.104910
68   1  0.7575  9.324160  5.768550  8.654780
69   1  0.8479  9.360390  5.949830 15.083900
70   1  0.7968  9.636210 12.281300  2.768540
71   1  0.8616  9.145340 11.942400  9.330980
72   1  0.8189  9.472920 11.465900 14.635900
73   1  0.7670 15.297300  0.525743  3.001220
74   1  0.8352 14.993500  0.156411  9.079720
75   1  0.7735 15.627600  0.079994 15.186900
76   1  0.7680 15.387900  6.589900  3.283930
77   1  0.8451 15.733400  5.905070  9.180150
78   1  0.7098 15.590900  6.300170 15.712800
79   1  0.7277 15.172600 12.245000  3.079250
80   1  0.6822 15.666200 12.093500  9.230940
81   1  0.7978 15.672200 12.225800 15.227300
82   1  0.7453  3.637010  2.851150 18.172000
83   1  0.7784  3.116160  2.604950  5.972010
84   1  0.7723  3.187530  3.210220 12.085900
85   1  0.7287  3.486290  8.809690  0.112215
86   1  0.8688  3.169380  9.184760  5.996410
87   1  0.7299  3.500080  8.865400 11.872600
88   1  0.8457  3.616060 14.983700  0.330954
89   1  0.8021  3.419380 14.933200  6.291860
90   1  0.7016  4.005080 15.287800 11.977200
91   1  0.7709  9.645050  3.090400 18.207100
92   1  0.7786  8.923530  3.515880  6.316210
93   1  0.7780  9.574630  2.793440 12.046500
94   1  0.7885 10.397600  9.318120  0.164347
95   1  0.8059  9.825010  9.024200  5.980750
96   1  0.7973  9.395100  8.680480 11.529000
97   1  0.7319  9.851810 15.186600  0.437841
98   1  0.8158  9.106710 14.905200  6.156000
99   1  0.7463  9.578200 14.781800 12.127800
100  1  0.8632 15.758400  2.892090 17.899100
101  1  0.8020 15.716700  2.523690  6.068460
102  1  0.8243 15.365000  3.381810 11.687600
103  1  0.7432 15.777700  8.654300 17.995000
104  1  0.8339 15.688100  9.024190  5.967530
105  1  0.7961 15.471900  8.912790 12.208600
106  1  0.7635 15.160600 14.971000  0.123301
107  1  0.8127 15.988200 14.936600  5.944770
108  1  0.7080 15.659900 15.384500 12.210100
109  2 -0.7940  2.998930 17.453800  0.054183
110  2 -0.8287  3.346130 18.063900  5.868270
111  2 -0.7100  3.535960  0.264104 11.866900
112  2 -0.7803  3.215930  6.129670 18.148400
113  2 -0.8755  3.392350  6.322450  5.949070
114  2 -0.8766  3.466480  6.060220 11.851700
115  2 -0.7561  3.866920 12.095500  0.229789
116  2 -0.7505  3.561280 12.004500  6.089840
117  2 -0.7518  3.806380 11.922700 12.463700
118  2 -0.8209  9.342110 18.221700  0.067255
119  2 -0.7732  8.979610 18.190000  6.222590
120  2 -0.8184  9.269590 18.068300 12.308900
121  2 -0.7217  9.684340  5.792110  0.391879
122  2 -0.8793  9.042630  6.261810  6.012720
123  2 -0.7009  9.096740  5.997620 12.171500
124  2 -0.7542  9.583680 11.663200 17.731200
125  2 -0.7301  9.389410 12.175900  5.869250
126  2 -0.9012  9.196520 11.622100 12.080700
127  2 -0.7946 15.048100  0.335806 18.169400
128  2 -0.7814 15.529700 18.000900  6.037140
129  2 -0.7604 15.235300  0.235852 11.828700
130  2 -0.8269 15.518200  5.652900  0.064944
131  2 -0.7239 15.444300  6.259780  6.542060
132  2 -0.7887 15.192700  5.933600 12.215400
133  2 -0.7624 15.557900 11.587500  0.059198
134  2 -0.8350 15.920200 12.007500  6.203420
135  2 -0.6943 16.109800 12.183100 12.429900
136  2 -0.7698  3.442200  3.589210  2.841910
137  2 -0.7945  3.063640  2.953630  8.999480
138  2 -0.8627  3.294230  3.028660 15.414800
139  2 -0.8641  3.394720  8.935720  3.240520
140  2 -0.8003  3.194290  9.446160  8.824820
141  2 -0.7752  3.421800  9.314510 15.519100
142  2 -0.7052  3.654380 14.865000  3.017640
143  2 -0.8829  3.207720 15.362300  9.151650
144  2 -0.7136  3.575790 14.979700 15.663700
145  2 -0.7601  9.206990  3.018590  3.175540
146  2 -0.8250  8.850790  2.915520  8.907210
147  2 -0.7599  9.610860  3.323130 14.925300
148  2 -0.7026  9.914430  9.036820  3.096200
149  2 -0.8402  9.259730  8.660040  8.963770
150  2 -0.7575  9.397820  8.867540 15.180900
151  2 -0.8214  9.400570 15.045300  3.329270
152  2 -0.8004  9.020380 14.796000  9.001120
153  2 -0.6731  9.372680 14.757500 15.425000
154  2 -0.7242 15.464000  3.668950  3.524750
155  2 -0.8238 15.368400  2.878180  8.806800
156  2 -0.6864 15.546100  3.235650 15.180100
157  2 -0.8558 15.340500  9.432370  3.322300
158  2 -0.7210 15.308200  8.815460  9.337930
159  2 -0.7958 15.783300  9.401020 15.212500
160  2 -0.8223 15.177900 15.364600  3.061220
161  2 -0.7446 15.398700 15.148900  8.716670
162  2 -0.7975 15.286500 15.383100 15.344600
163  2 -0.9132  0.245416  0.249990  3.032390
164  2 -0.8054  0.236343  0.159356  9.449850
165  2 -0.7103  0.318384  0.250600 15.142400
166  2 -0.7847  0.331128  6.305860  2.697130
167  2 -0.8536  0.316710  5.982230  9.206690
168  2 -0.8632  0.761708  6.264120 15.257400
169  2 -0.6165  1.210600 12.137200  3.351180
170  2 -0.8135  0.568054 12.712800  9.415620
171  2 -0.7413  0.915642 12.036100 15.238700
172  2 -0.7053  6.248430  0.148990  2.825100
173  2 -0.7394  6.020770 18.044200  9.332150
174  2 -0.9274  6.300480  0.071372 15.188600
175  2 -0.8566  6.259740  6.237120  3.346650
176  2 -0.8080  6.420890  5.367430  8.910030
177  2 -0.7011  6.443820  6.063310 14.967500
178  2 -0.8174  6.616810 12.315100  3.034630
179  2 -0.7932  6.503750 11.898600  9.060860
180  2 -0.7131  6.471890 11.879000 15.027000
181  2 -0.7595 12.695000 18.173400  3.010000
182  2 -0.8043 12.294600 18.058600  8.846920
183  2 -0.7343 12.094100 18.043100 15.162400
184  2 -0.7467 12.294400  6.038460  3.300070
185  2 -0.8057 12.344700  6.039230  9.201280
186  2 -0.8225 12.493900  6.318790 15.127100
187  2 -0.8244 12.234800 12.411800  3.140080
188  2 -0.7961 11.660100 11.777300  9.232510
189  2 -0.7532 12.735400 12.623800 15.030200
190  2 -0.7673  0.268004  2.983890 -0.004848
191  2 -0.9313  0.506210  3.013200  5.754240
192  2 -0.7874  0.356824  2.988690 12.525700
193  2 -0.8071  0.624142  9.320110 18.111100
194  2 -0.7828  0.179454  8.851690  6.058300
195  2 -0.7840  0.560895  8.512480 12.090000
196  2 -0.8726 18.012700 14.900500 -0.065762
197  2 -0.7986  0.483739 15.145000  5.689190
198  2 -0.6878  0.616586 15.419300 12.705300
199  2 -0.7937  6.552670  3.402820  0.288505
200  2 -0.6753  6.257880  2.813340  6.427790
201  2 -0.7502  6.484810  2.786830 12.313100
202  2 -0.7178  7.340930  8.835100  0.383806
203  2 -0.7177  6.124710  9.591950  5.968540
204  2 -0.7599  6.599710  8.377100 12.126600
205  2 -0.7990  6.588320 14.730600  0.004652
206  2 -0.7857  6.334340 15.028900  5.982760
207  2 -0.8446  6.742790 14.774700 12.273500
208  2 -0.7602 12.711800  3.174770 17.738800
209  2 -0.7326 12.461800  2.990920  6.276390
210  2 -0.7588 12.562600  3.115540 12.068800
211  2 -0.8377 13.062100  8.743210  0.335922
212  2 -0.8296 12.506100  9.341340  6.167290
213  2 -0.8043 12.656400  9.402590 12.231600
214  2 -0.8420 12.496900 15.048900 18.134100
215  2 -0.7828 12.556300 15.060300  5.790570
216  2 -0.7848 12.495200 15.219900 11.695900

