Generated by pymatgen.io.lammps.data.LammpsData

504  atoms

  2  atom types

0.000000 17.774667  xlo xhi
0.000000 21.986255  ylo yhi
0.000000 41.650458  zlo zhi

Masses

1  208.9804
2   78.9600

Atoms

1    1  0.3344 12.252900  8.928890 15.420800
2    1  0.7938  0.769756 20.744000  7.741210
3    1  0.7177 13.246800  2.764100 12.801900
4    1  0.5160 15.946900 10.160800 15.664100
5    1  0.0698  3.813540  9.144180  9.323370
6    1 -0.0619  2.636770 20.696600 16.296400
7    1  0.5037  6.731390  4.044560 10.130200
8    1  0.1980  2.417240  7.495100 11.225900
9    1  0.7236  9.708650 11.572300  8.436000
10   1  0.1995  4.598510 16.191800 12.673100
11   1  0.5611 15.471200 11.246600  7.507730
12   1  0.2320 12.857800 20.317900 21.462300
13   1  0.5156 17.314700  4.819030 12.054700
14   1  0.0473  3.998150  5.809540 14.198400
15   1  0.4431  6.982830 14.480700 11.318200
16   1  0.4344  6.880170  6.386140 15.748500
17   1  0.7020 12.327800 20.953600 11.194600
18   1  0.1834  0.359669 20.252900 14.349800
19   1  0.2646  6.702130 18.445300 12.797500
20   1  0.4851 12.732900  7.221530 17.903400
21   1  0.5393 10.661400  5.089530 23.612600
22   1  0.4859 15.087300 19.241200 13.979900
23   1  0.7221 11.058400  5.246190 11.184900
24   1  0.8099 10.505400  2.013510 16.199700
25   1  0.8427  2.551170 13.478300 40.871500
26   1  0.5764  3.438590 19.157700  3.309190
27   1  0.5279  1.520040  2.348850 39.916400
28   1  0.7061  5.221900  3.312380 40.904600
29   1  0.0163  6.083440 11.271700  4.452290
30   1  0.6818  8.125900  1.163650  8.477220
31   1  0.2820  4.061150 16.563900  1.920550
32   1  0.4377  3.884920  8.985830  0.474198
33   1  0.2876 10.084900  6.644170  2.914500
34   1  0.1210  5.510560 11.285600  7.407330
35   1  0.2631 16.744400  9.358120 37.294300
36   1  0.3476  1.125570 13.897100  4.316210
37   1  0.7248  3.795580 18.235600 35.789700
38   1  0.2366  7.868590 14.766500 41.444300
39   1  0.7597 10.776100 15.396900  6.965590
40   1  0.7632 12.502100  8.777430  8.079080
41   1  0.7676 12.687600 12.989800  2.170520
42   1  0.6317  0.164237 10.028300  0.087780
43   1  0.5122  9.138480 21.963500 40.559700
44   1  0.6569  3.998110 21.937600 40.510400
45   1  0.4793 17.194300  4.494960  3.990200
46   1  0.4759  0.769146 16.683200  3.419850
47   1  0.5842 13.321700  2.679380  3.338070
48   1  0.4091 -0.297396  4.095420  0.581101
49   1  0.6071 16.953900 11.829500  2.746140
50   1  0.1694  3.969290 12.328700 16.628400
51   1  0.4551  2.635230 17.670200  6.832520
52   1 -0.0397  5.020280  7.821270  6.404900
53   1  0.6517  9.700310 10.165200 14.103300
54   1  0.4992  2.640030  3.785380  1.529890
55   1  0.2033  6.377200  5.453740  6.773520
56   1  0.5799 13.777700  7.741030 12.490600
57   1  0.5200  9.848980  6.548970  5.927130
58   1  0.4323  5.796030 14.444800  8.425090
59   1  0.1894  6.499340 13.231300  1.858460
60   1  0.3931  8.002230 19.570700  1.570300
61   1  0.6414  9.351720  1.579800  5.275320
62   1  0.7561 16.312800 17.570200  6.510260
63   1  0.7154  0.350408  4.661600  6.762830
64   1  0.2346  1.734140  7.025080  3.087290
65   1  0.1082  3.530780 14.535600  5.951480
66   1  0.1850  3.862430 13.001200  3.489820
67   1  0.4203  1.043850 18.853600 11.504300
68   1  0.7506 15.222500 20.480100  2.972520
69   1  0.5675  2.184870 14.508600  9.089150
70   1  0.7442 15.682600  7.587140  3.056940
71   1  0.5546  8.367310  0.873129  1.783070
72   1  0.3143  4.150570 17.364300  9.344940
73   1  0.0663  6.105000  7.153470  2.027510
74   1  0.1547  4.107610 19.066100 11.506900
75   1  0.1735  7.593300  9.354750  6.310920
76   1  0.7956  7.484000 19.733100  6.368890
77   1  0.6414 16.324300  6.813010  9.172080
78   1  0.1795  5.594980  6.770310  9.348860
79   1 -0.0399  5.527880 16.574800 15.678200
80   1  0.2919  6.524180  9.574340  9.821350
81   1 -0.0458  4.111540  8.948470  3.471100
82   1  0.2551  5.714860 15.532500  4.047790
83   1  0.6289 10.076700 12.109900 40.499200
84   1  0.8813 12.024600  9.635660  0.838675
85   1  0.8094  0.331183  1.161820  4.500020
86   1  0.1590  4.635510  5.919450  4.245480
87   1  0.1394  8.176300  9.469120  3.300390
88   1  0.2243  1.093870 10.060100  7.693220
89   1  0.6778 15.160300 18.069500 10.785400
90   1  0.1969  5.292990  7.883850 12.011000
91   1  0.0191  6.099450 13.870400 14.801500
92   1  0.7799 15.789700  1.384790  9.724610
93   1  0.1586  1.382680  9.496120  4.661360
94   1  0.8545 11.094000 11.986600  4.688630
95   1  0.6880 14.550800 14.447400  5.836270
96   1  0.7057  5.168300 21.327100  8.312860
97   1  0.5235  9.391720 15.678100 21.988800
98   1  0.2345  4.310660 17.510000 19.850800
99   1  0.7606  1.101780  5.984950 23.755000
100  1  0.6612  6.231780  9.526340 24.910000
101  1  0.2982  2.847530 15.086000 32.239100
102  1  0.3448  5.647770 21.366600 21.046500
103  1  0.4163  0.554040 20.094800 22.106200
104  1  0.1662  3.125540  9.301200 13.867000
105  1  0.7108  4.609530  1.020000 30.002900
106  1  0.1291 15.633800  7.911710 31.222100
107  1  0.5243 16.400700  8.778890 28.222700
108  1  0.6053  9.464410  7.437180 26.091900
109  1  0.7839  4.996280 19.206000 24.023000
110  1  0.6806  5.706700  6.149190 23.501600
111  1  0.6499 12.133300  4.947930 27.996100
112  1  0.5688 17.143800 14.563300 27.178900
113  1  0.5451  7.099770 14.596600 24.265000
114  1  0.0622 15.087500 10.542700 30.007800
115  1  0.6182 12.992200 16.914400 24.896400
116  1  0.6385 11.428800 17.077300 27.715100
117  1  0.4710  2.095090  5.414180 29.792300
118  1  0.3425 15.893700 20.693900 20.826500
119  1  0.3746 10.300800 18.748400 20.071500
120  1  0.4920 15.189700 12.033000 26.998900
121  1  0.7150  7.818900 17.084900  8.481270
122  1  0.0807  4.112630  0.564168 14.502000
123  1  0.4537 -0.005245  6.127900 17.149600
124  1  0.3169  6.446690  1.407480 15.278700
125  1  0.5570  9.780650 21.455400 18.273800
126  1  0.2981  6.951060  0.311187 18.752300
127  1  0.1167  0.298031  0.723038 19.551500
128  1  0.0440  1.456770  1.742000 15.123800
129  1  0.5939 16.712200 10.163300 12.040700
130  1  0.8235 13.200200 11.762500 22.714000
131  1  0.5533 14.818200  2.629380 19.778500
132  1  0.6565  9.080180  0.367571 11.932600
133  1  0.8763  3.268100  2.744280  8.981310
134  1  0.3819 15.238200  7.161330 15.406900
135  1  0.0467  1.416430  4.831410 14.962400
136  1  0.5712 13.403700 15.847100 13.648800
137  1  0.0896  2.513070 19.910300 19.070800
138  1  0.6523 15.607000 13.927700  9.824310
139  1  0.6428  3.438210 15.964600 23.677300
140  1  0.7036 11.813200 16.597000 16.995400
141  1  0.7310 13.481200 12.325900 18.358900
142  1  0.5797 15.750800 10.195300 19.950700
143  1 -0.0836  3.774230  3.126960 15.788400
144  1  0.1599  2.916040  5.742040 17.340000
145  1  0.7870 10.478400 13.910000 12.800300
146  1  0.3680  2.565950 10.886700 11.675000
147  1  0.1765  5.793930  2.975610 17.885600
148  1  0.3087  6.594760 10.428300 16.459300
149  1  0.1117  6.384660 18.624800 18.086500
150  1  0.5286 13.144300  4.136100 22.694700
151  1  0.3368  1.146480  0.549237 12.592400
152  1  0.5257  9.590740  5.614700 14.528200
153  1  0.4195 12.262600 12.694400 28.881900
154  1  0.6891  9.250060 10.900200 23.367300
155  1  0.7149 13.211600 21.280900 15.655000
156  1  0.7439  8.960410  1.783550 26.126200
157  1  0.6621 10.827500 18.535200 14.422700
158  1  0.7200  0.237022 13.327600 22.682600
159  1  0.5268  0.031877 17.457900 15.803800
160  1  0.7715 11.713400 17.814300  9.644580
161  1 -0.0827  3.886660  0.737435 18.841100
162  1  0.7179  0.856777  0.533114 25.699400
163  1  0.2910 11.047800 18.643500 23.373700
164  1  0.6498 13.386900  8.428800 22.340700
165  1  0.4666  6.196310 14.496900 20.813500
166  1  0.6827 15.782400 14.657000 15.622700
167  1  0.1788  4.317150 11.755400 13.919900
168  1  0.0623  5.480610 19.963000 15.590700
169  1  0.5896  2.451410 16.793800 28.062100
170  1  0.3704 17.233600  3.635560 20.000800
171  1  0.4752  4.265530  5.669690 19.811100
172  1  0.6613 10.184500 10.772000 19.596200
173  1  0.6007  5.986940  1.796400 22.778600
174  1  0.0194  2.771740 18.566400 13.865800
175  1  0.3358 -0.280806  1.180320 22.443300
176  1  0.2580 12.613400  9.483240 29.176200
177  1  0.8177  3.953140  8.522770 27.983500
178  1  0.7032  3.014000  3.092430 25.649800
179  1  0.7375 -0.164785 16.788700 20.093100
180  1  0.3249  8.627240 12.324000 16.937600
181  1  0.5511 10.722900 21.027700 25.095200
182  1  0.2926  6.124750  3.644340 13.733000
183  1  0.3194  0.764436  7.917140 13.724000
184  1  0.3782 13.199900 17.158100 21.120200
185  1  0.1641  7.550050 15.366300 17.745300
186  1  0.0237  1.785310  3.367110 18.393500
187  1  0.7048 11.320400  1.236120 20.374300
188  1  0.5740 16.474600  3.234220 15.025500
189  1  0.0249  4.427030 14.966800 17.808100
190  1  0.5986  1.404020 12.979000 19.121000
191  1  0.0247  3.056520 18.028300 17.053900
192  1  0.5602 15.009100 13.493900 12.892000
193  1  0.0369 15.329700 10.570500 32.828300
194  1  0.4960  9.593130 17.953300 41.513400
195  1  0.5325 11.523800  4.634530 37.250600
196  1  0.5707  2.618230 18.438900 41.091300
197  1  0.0557  2.502880 11.748000  6.035770
198  1  0.7144 17.401800 15.782000  0.904655
199  1  0.5304 15.858100  2.389360 38.553000
200  1  0.7430 14.304400  5.806540 39.591500
201  1  0.8503 12.593700  4.587150  7.654340
202  1  0.1454  6.420520 10.034400  1.077130
203  1  0.5534 13.426800  1.239460 41.240700
204  1  0.7422 12.706100 17.642700  5.323930
205  1  0.5508  9.966430  6.260310 41.603900
206  1  0.5876 13.272700  5.070850  1.470780
207  1  0.2192  7.726020  4.947590  4.291940
208  1  0.6422 12.216400 14.463700 37.905600
209  1  0.6675 13.978900 17.420800  1.371360
210  1  0.6180 10.814500 20.777900  2.897730
211  1  0.5414 10.161500  2.440150 39.855900
212  1  0.6833  5.298240  4.085020 30.801500
213  1  0.6644 11.533700 19.984800 33.036600
214  1 -0.0784  0.198301 10.109300 34.078500
215  1  0.5562 11.692200 19.837900 38.079900
216  1  0.3286  0.230380  5.749490 33.006000
217  1  0.6381  0.113320 17.275200 32.114500
218  1  0.6895 16.865300 18.282800 28.032800
219  1  0.6092 15.969600  4.868960 35.801300
220  1  0.6930  6.467570 10.026100 30.164500
221  1  0.7051  1.923770  7.759680 38.740500
222  1  0.5598  6.576490 15.973100 31.202800
223  1  0.8060  4.004010 21.933000 37.244600
224  1  0.7078 16.806700  5.019240 26.526400
225  1  0.5491 10.414900  8.485510 37.589200
226  1  0.6864  9.985250 16.658100 31.728600
227  1  0.6286  6.248100 16.413900 27.390800
228  1  0.8152  6.860230  0.376341 34.094600
229  1  0.8079  7.521140 20.003000 27.218000
230  1  0.2123  7.721190 10.357000 34.681100
231  1  0.0857 10.681200  9.539200 34.755400
232  1  0.2690  9.419650 11.264300 32.436300
233  1  0.6239 11.312900 13.472000 25.519800
234  1  0.2040  3.050640 10.147000 35.108500
235  1  0.5074 13.723000 20.162600 24.378900
236  1  0.3220 12.181700  6.632080 34.879400
237  1  0.8877  7.976760  7.362920 20.399600
238  1  0.7094  4.157240 13.031400 26.656100
239  1  0.7814 13.242100 16.480600 29.914300
240  1  0.7480 14.441700  2.370030 29.749100
241  1  0.3746  9.749870 17.534400 36.938600
242  1  0.7453 13.765400  1.780640 34.425800
243  1  0.6454  6.479240  9.193620 40.034700
244  1  0.3916 -0.025559 12.393600 37.613400
245  1  0.4778  7.440590 12.337900 36.971300
246  1  0.4863  6.360310 18.153900 40.644300
247  1  0.3169  5.506940 15.421200 34.463700
248  1  0.7215  2.548700 20.188400 32.340100
249  1  0.2376  2.239840  7.267290 34.503200
250  1  0.2216  8.738630  7.595350 34.081600
251  1  0.5976  8.945670  8.355700 29.350000
252  1  0.2610 13.403000  9.266550 35.330200
253  1  0.6461 10.362000  1.202500 35.337700
254  1  0.4111  5.452660  8.614540 33.574300
255  1  0.6429 15.592700  8.428040 40.397800
256  1  0.1139 -0.002031 10.234000 31.302800
257  1  0.1017 15.749100  7.911320 34.163600
258  1  0.6799 11.782000  4.345010 32.174100
259  1  0.6098 16.039500 14.727300 35.940300
260  1  0.6801 11.027600  1.405250 28.829000
261  1  0.1400  2.306850 12.252000 32.942300
262  1  0.6480 15.303300  2.246350 25.689900
263  1  0.5381  2.964250  2.663150 33.248200
264  1  0.6325  8.086600  5.165630 35.447100
265  1  0.4278  1.064830 13.993500 30.437100
266  1  0.2955  1.358970 13.814200 35.025200
267  1  0.8042  0.726373  9.240310 24.794400
268  1  0.2770  9.018070 15.101500 38.449500
269  1  0.4382  8.625990 15.605200  2.860870
270  1  0.7937  3.499550 15.636300 38.291300
271  1  0.7584 -0.226842 22.030700 33.461100
272  1  0.6944  0.161267  2.471830 29.883600
273  1  0.2956  8.334850 14.844100 35.357400
274  1  0.3109 12.886500 11.821300 31.863000
275  1  0.5928 13.520600 17.414300 34.733000
276  1  0.7167  1.553620 20.802400 28.553100
277  1  0.7498  7.315860 19.225900 32.309800
278  1  0.6735 16.465000 19.254700 40.538600
279  1  0.7179  8.613920  2.880150 32.436300
280  1  0.8192  4.079320  4.337100 37.644100
281  1  0.6671 16.183000 19.812000 36.909100
282  1  0.6992 14.158400 20.919000 32.412300
283  1  0.6316  9.042260 20.240500 35.916300
284  1  0.7046  0.025889 16.687500 23.606700
285  1  0.1956  2.171240  9.163680 32.243700
286  1  0.8354  4.620470  1.629530  4.377400
287  1  0.7539 13.286100 21.068200 28.476200
288  1  0.6925  7.318220 13.349100 29.860200
289  2 -0.5876  1.651580  4.945030 37.131000
290  2 -0.4399  2.154640  1.425070  6.695400
291  2 -0.6865  3.395700  4.987100 40.401100
292  2 -0.6544 16.104100 19.110500 33.629800
293  2 -0.6720 11.490200 16.679400 40.089000
294  2 -0.8363  1.901360  4.157290  4.662560
295  2 -0.6815  7.838030  1.076720 36.311400
296  2 -0.7546  5.538200  2.099010  7.542470
297  2 -0.7670 15.439400 17.581900  3.818590
298  2 -0.7314 11.121100 14.360700  3.813290
299  2 -0.7956  4.607090 15.854700 40.606000
300  2 -0.4918 12.650000 20.314800  4.967410
301  2 -0.5194  1.285140 19.046600 38.832900
302  2 -0.5656  2.469660 10.429900 39.556300
303  2 -0.8465 12.448000  3.929480 40.508600
304  2 -0.6130 12.645700  7.531770 40.697700
305  2 -0.5601  1.183180 15.731400 39.989500
306  2 -0.8521 12.855600 21.575200 35.054300
307  2 -0.7248 11.545800 20.354100  0.174497
308  2 -0.7390  1.862850  6.160280  8.275200
309  2 -0.5508 14.620800 11.758300 37.572300
310  2 -0.6542  9.848610  9.496830 40.633400
311  2 -0.8815 10.936700  1.755190  2.541150
312  2 -0.6640 16.757300  5.768550 39.212300
313  2 -0.7631  0.733104 18.563600  5.092550
314  2 -0.3888 13.656200 20.076800  8.934460
315  2 -0.4264 16.707800 13.158300 41.462900
316  2 -0.5195  2.569570  1.460420  2.565860
317  2 -0.6534  6.546230 12.614400 39.826600
318  2 -0.6713 15.925000  1.375940  3.288990
319  2 -0.2350 12.639500  1.451890  6.652190
320  2 -0.6321  7.290460  0.130950  4.225860
321  2 -0.6462  7.638720  4.438540 41.460300
322  2 -0.8108 10.386600 11.159900  2.035770
323  2 -0.4819 15.323000 16.643600 40.648900
324  2 -0.6152 -0.186595 16.766800  8.634630
325  2 -0.5696 10.350600 18.255400  7.084510
326  2 -0.5904  5.210250 21.102400  1.642100
327  2 -0.5344 12.822700  7.608060  2.621680
328  2 -0.6034 15.792600  8.925890  5.539360
329  2 -0.4128 13.592900 14.324900 34.909700
330  2 -0.7255  2.838450  3.916350 11.269900
331  2 -0.5606 15.359900  4.168840  8.129470
332  2 -0.5036 13.049200  1.596200 10.056000
333  2 -0.7118 10.246300  9.625130  5.982570
334  2 -0.6987  8.964080 13.311100  6.012340
335  2 -0.7007 10.681900 17.491800  2.751070
336  2 -0.8718 14.418400  6.924590 36.725600
337  2 -0.8557  7.178130 19.287400  8.883720
338  2 -0.6292  9.385600  2.506220 10.072800
339  2 -0.8281  7.322260  8.702150 14.213300
340  2 -0.5574 13.840900 11.657800  5.073440
341  2 -0.5526  3.458400 20.533800  6.240590
342  2 -0.4276  9.981000 21.280300  7.747260
343  2 -0.6442  2.534250 21.584800  9.747760
344  2 -0.8226 14.467200 10.537100 13.574500
345  2 -0.6701 17.002200 20.134100 10.133800
346  2 -0.8442 16.083100 16.401000 13.409500
347  2 -0.7571  2.327910 11.553400  1.385770
348  2 -0.7409 17.171300 13.535500  7.295110
349  2 -0.9051 12.916700 18.393600 12.213200
350  2 -0.5050  1.452110 22.080400  0.168278
351  2 -0.6933  9.693380  4.051260  6.922860
352  2 -0.7284 13.953500 16.540700  7.393150
353  2 -0.6532 15.655900 14.308200  2.893400
354  2 -0.8607 13.164300 10.529600 20.195500
355  2 -0.4509  0.608835  2.392260  9.148080
356  2 -0.3836 12.937700  2.629010 15.949400
357  2 -0.5205  8.973070 12.157200 11.539900
358  2 -0.5632 12.411400 15.143500 10.906600
359  2 -0.4181 16.461400  0.267511  6.797510
360  2 -0.5538  8.869110  6.491810 11.497100
361  2 -0.6000 10.573900 14.197000 18.678900
362  2 -0.7017  8.640310 21.797200 15.449800
363  2 -0.9685 16.593500  7.288060 11.657100
364  2 -0.6350  0.469936 12.226700 10.196300
365  2 -0.6352  9.549140  8.353180 17.553600
366  2 -0.7237  8.431700  8.199680 23.308800
367  2 -0.8923  5.155810 12.713700 10.115400
368  2 -0.6157 -0.270231 12.000800 13.713300
369  2 -0.6895 15.861300  4.407370 17.252700
370  2 -0.4147 11.108000  8.912670 12.029300
371  2 -0.4057 12.202900 10.831900 10.159900
372  2 -0.6046  9.570080 17.407400 12.057500
373  2 -0.6945  6.583180 18.446400  4.005280
374  2 -0.4640 12.537400  6.695590  5.868470
375  2 -0.3951 12.054800  3.586300 19.023900
376  2 -0.4989  9.766190  6.843940  8.684210
377  2 -0.5652 12.775900 13.287600  7.888690
378  2 -0.5501  9.554080 14.862500  9.465920
379  2 -0.6702 13.221300  6.288430  9.939860
380  2 -0.8120  1.373870  8.383550 16.359700
381  2 -0.5579 11.101800  7.364490 21.065500
382  2 -0.5811 16.566600 11.297600 23.796000
383  2 -0.6391  2.156820 15.710800 11.779400
384  2 -0.5312 15.803600  0.212976 16.148500
385  2 -0.7250 13.557800  0.230705 19.119900
386  2 -0.8258  1.435670  3.812370 22.475100
387  2 -0.7357 13.329700  1.571720 23.485000
388  2 -0.7972 14.552100  5.027040 14.080200
389  2 -0.3840 14.251900 15.219300 19.175800
390  2 -0.6298  5.972990  0.784861 11.274700
391  2 -0.6034 -0.094745 15.427500 17.437500
392  2 -0.4302  0.674881  8.084540 20.609200
393  2 -0.2622  4.116670 11.232900 20.454800
394  2 -0.6745  6.668880 18.817400 22.023400
395  2 -0.5527  4.045850 18.941400 27.042300
396  2 -0.5233 14.716000 17.754700 16.721500
397  2 -0.7401 10.709100 15.450900 14.908800
398  2 -0.7421  9.101720  3.037480 14.275900
399  2 -0.5436  4.569680 13.319500 23.282400
400  2 -0.6824 15.992500 12.343500 17.755800
401  2 -0.5833  7.340420  5.579580 18.411200
402  2 -0.5130 14.258000 14.350900 24.646200
403  2 -0.6742 15.120500  0.556596 12.854100
404  2 -0.7448  9.599630 20.920300 21.267800
405  2 -0.8833  5.593320 16.804900  6.973080
406  2 -0.6768 11.630300 12.167700 15.659700
407  2 -0.5531  8.803970  2.198160 19.103400
408  2 -0.7666  2.708570 18.372700 22.429500
409  2 -0.7873  1.713350 15.245100 21.000700
410  2 -0.4853  3.496390 10.333300 25.862800
411  2 -0.5874  0.098544 10.796400 26.954500
412  2 -0.4519  7.484010 10.056200 20.273100
413  2 -0.1138  3.355540 10.613000 22.069400
414  2 -0.6980 16.160300 21.839500 24.860800
415  2 -0.6192 12.316500  7.352620 26.624000
416  2 -0.4816  4.984530  7.728450 21.189900
417  2 -0.4924  7.117950  4.158540 21.397600
418  2 -0.7059 10.577500 15.181700 29.619400
419  2 -0.8434 10.377800 16.081900 24.484000
420  2 -0.7676  2.050230  1.854230 28.046200
421  2 -0.8354 10.470600 18.999200 17.056300
422  2 -0.6746 11.980300 19.219300 30.398300
423  2 -0.5275  8.337120  3.839900 24.587900
424  2 -0.6290 16.361800 18.655200 19.012400
425  2 -0.7456 13.456200 18.600400 26.780300
426  2 -0.6913  2.456360 18.517300 30.027800
427  2 -0.6741  7.105640 18.070700 25.219400
428  2 -0.6419  4.883960  6.112460 34.746700
429  2 -0.6677 11.597800  0.813863 13.776600
430  2 -0.6851 12.051800 10.519300 24.673500
431  2 -0.6013 10.991600 12.909700 22.380200
432  2 -0.7429 15.527200 18.060600 24.033600
433  2 -0.4359 15.589000  8.167820 25.478000
434  2 -0.7728  2.001780  0.323142 30.752600
435  2 -0.8026  1.788140 14.923000 25.414300
436  2 -0.4650  3.549680 11.035500 29.041500
437  2 -0.6334  5.108850 21.263200 31.988200
438  2 -0.6822 12.515600  0.670978 38.238400
439  2 -0.5736 14.609600  6.557800 20.032500
440  2 -0.5230  6.790210  0.302826 25.537900
441  2 -0.4864  4.689840  3.886540 28.091300
442  2 -0.5784  6.854610  7.050710 26.629000
443  2 -0.6673  8.246390 17.791400 28.755500
444  2 -0.6663  7.876980 13.243600 22.078800
445  2 -0.7665  5.792890  2.770210 33.092300
446  2 -0.5008  9.711540  4.168500 28.609000
447  2 -0.6161  6.681910 11.649500 26.875600
448  2 -0.4121  4.594450  7.782680 38.158100
449  2 -0.7074 16.167200  5.058700 24.167300
450  2 -0.6721  6.299470  2.856500  2.647350
451  2 -0.7602  2.789010  0.749196 24.330100
452  2 -0.6955 13.846000 14.570900 27.593300
453  2 -0.7189  1.752790  8.249950 29.624900
454  2 -0.6007  0.971060  6.814730 26.426900
455  2 -0.5814 16.139000  0.597196 28.420600
456  2 -0.7801 15.607200  4.637670 28.825600
457  2 -0.4958 15.822400 13.955200 21.691400
458  2 -0.9125  9.878830 18.242300 34.166800
459  2 -0.4913  7.448810  1.969270 30.190300
460  2 -0.8075  5.084960 14.744000 29.103600
461  2 -0.5273  1.519850 21.045800 35.431700
462  2 -0.6025  1.198540 17.525000 35.904100
463  2 -0.5925 16.486600 14.601400 32.931200
464  2 -0.5367  1.114550 18.538000 25.262500
465  2 -0.4828 12.919700 12.153100 41.144600
466  2 -0.7583  5.170770  1.604250 38.898900
467  2 -0.4539 13.721700 14.270600 31.435200
468  2 -0.5974 14.126200 17.496700 37.542600
469  2 -0.5180  9.774760  1.197830 23.688800
470  2 -0.5918  2.086660  1.682310 37.096800
471  2 -0.6794 11.360900  6.836870 30.182800
472  2 -0.8035  8.658100 11.150400 29.203900
473  2 -0.7226  9.773230 21.199500 27.953600
474  2 -0.6394 10.389800 14.645300 33.485900
475  2 -0.9231 10.404600  4.001970 34.928300
476  2 -0.5500 15.434700 19.193000 30.168400
477  2 -0.6466  5.705210  7.396730 31.021200
478  2 -0.5998  3.520390  6.093210 25.128400
479  2 -0.7512 17.218500 15.977100 29.784800
480  2 -0.8442  6.184200 11.998500 32.017500
481  2 -0.6063 15.200800  9.795050  1.476480
482  2 -0.7637  4.905410 17.446100 32.368100
483  2 -0.5703  7.670940  8.509560 37.533700
484  2 -0.8105  2.996420 12.984100 36.720200
485  2 -0.6464  5.643380 17.169400 37.465400
486  2 -0.5936 16.000600  0.897813 36.034000
487  2 -0.5611 -0.063970 19.652600  1.591580
488  2 -0.5744 15.908100  0.238480  0.314728
489  2 -0.7562  1.505500  7.687550 41.557300
490  2 -0.7420 10.041900 11.956900 37.498200
491  2 -0.7698  8.626340 19.733900 39.558600
492  2 -0.5973 15.031100  5.514210  4.807700
493  2 -0.5656  5.237640 20.200700 38.903100
494  2 -0.5050  8.759320  5.490980 38.343600
495  2 -0.7873 12.980400  1.288670 26.882000
496  2 -0.7685 15.480300  6.283770  0.573573
497  2 -0.6418 15.672400  0.755810 31.494100
498  2 -0.8715  1.931420 14.606100  1.897960
499  2 -0.5990  6.080240 19.795600 34.740400
500  2 -0.7576 12.172400  1.501790 31.184400
501  2 -0.7568  9.200540 21.370700 33.173600
502  2 -0.7420 13.996200  4.471300 33.667800
503  2 -0.7242  0.126564  3.331920 32.374200
504  2 -0.5124  8.737770  5.575330 31.631600

