Generated by pymatgen.io.lammps.data.LammpsData

5  atoms

2  atom types

0.000000 9.844253  xlo xhi
0.000000 3.821702  ylo yhi
0.000000 3.353513  zlo zhi
9.072150 9.072150 1.832857  xy xz yz

Masses

1  208.9804
2   78.9600

Atoms

1  1 24.933349 5.037312 2.987447
2  1  3.055204 0.617246 0.366066
3  2 20.154782 4.071893 2.414892
4  2  7.833772 1.582666 0.938621
5  2 13.994277 2.827279 1.676757

