Generated by pymatgen.io.lammps.data.LammpsData

504  atoms

  2  atom types

0.000000 17.774667  xlo xhi
0.000000 21.986255  ylo yhi
0.000000 41.650458  zlo zhi

Masses

1  208.9804
2   78.9600

Atoms

1    1  0.8804 -0.071765 15.100400 12.270300
2    1  0.8636  2.003690 18.588800 12.754800
3    1  0.8544 -0.311346  7.688980 12.364600
4    1  0.7812  2.169410 11.295800 12.486000
5    1  0.7961  4.250070 14.950100 11.917000
6    1  0.8577  6.346670 18.515600 12.579500
7    1  0.8459 -0.389877 22.178300 12.213500
8    1  0.8004  2.194100  4.133300 12.362500
9    1  0.8407  4.066770  7.711730 12.593800
10   1  0.8719  6.525280 11.108600 12.295100
11   1  0.8427  8.507130 14.966400 12.023200
12   1  0.7962 10.954100 18.410500 11.919900
13   1  0.7856  4.480140  0.564260 12.138900
14   1  0.8383  6.896000  3.871900 12.208600
15   1  0.8650  8.597770  7.794230 12.257300
16   1  0.8383 11.040500 10.979600 12.096800
17   1  0.8130 13.213400 14.799900 12.065500
18   1  0.8264 15.541200 18.622600 12.184600
19   1  0.8671  8.906720  0.289513 12.333800
20   1  0.9703 10.779400  4.260650 12.511400
21   1  0.8561 13.097000  7.563170 11.937000
22   1  0.8063 15.550000 10.974100 11.868500
23   1  0.8682 12.649100 22.420000 12.105300
24   1  0.7836 15.445600  3.822370 12.234800
25   1  0.8288  1.894750 13.677600  1.819450
26   1  0.8518  4.161840 17.075800  1.744940
27   1  0.8525  1.974090  6.414080  1.421040
28   1  0.8160  4.191200  9.848630  1.577360
29   1  0.7916  6.282100 13.350700  1.479990
30   1  0.8282  8.841470 17.422200  1.751790
31   1  0.8251  2.014310 21.076300  1.893780
32   1  0.8686  4.101900  2.728130  1.698940
33   1  0.8624  6.579700  6.047070  1.751630
34   1  0.8347  8.575970  9.903980  2.106800
35   1  0.8022 10.665000 13.735500  1.710910
36   1  0.8332 12.930200 17.229000  1.857050
37   1  0.8324  6.880700 20.954100  1.807820
38   1  0.8264  8.543600  2.236820  1.984110
39   1  0.8843 10.795400  6.081890  1.745310
40   1  0.8485 13.296400 10.046000  1.812460
41   1  0.8975 15.584000 13.470400  1.511710
42   1  0.8394 -0.236377 17.037400  1.905740
43   1  0.8441 11.272600 21.026000  1.734970
44   1  0.8679 12.943400  2.787420  1.625100
45   1  0.8783 15.297800  6.453900  1.242930
46   1  0.8102 -0.017959 10.009100  1.750200
47   1  0.8660 15.422600 21.062600  2.050480
48   1  0.8061 -0.334436  2.783920  1.751500
49   1  0.1610  0.628175 14.491500  6.665540
50   1  0.2469  3.220460 15.511000  8.457010
51   1  0.1997 -0.312099  8.153950  7.376680
52   1  0.1955  2.275470  9.779920  7.003630
53   1  0.1562  5.766150 14.729700  7.243600
54   1  0.2039  7.245360 17.878500  7.074720
55   1  0.1802  0.772577 22.133300  7.211140
56   1  0.1712  1.521150  3.149040  7.556420
57   1  0.2106  4.630850  7.792600  6.873110
58   1  0.1940  7.878050  8.095980  6.256320
59   1  0.2207  8.887990 15.411400  7.090880
60   1  0.1974 11.029600 17.929500  6.991720
61   1  0.1759  3.844700  1.140840  7.036670
62   1  0.1768  6.824330  2.376430  6.815960
63   1  0.2277 10.357100  6.724500  7.719900
64   1  0.1572 10.226200 10.169200  6.574770
65   1  0.2355 13.183700 15.417300  6.561910
66   1  0.1634 16.225900 16.391700  7.158280
67   1  0.1895  9.325790  0.618485  6.811420
68   1  0.2046 12.033900  1.865030  7.245940
69   1  0.1942 12.796500  8.022220  6.866210
70   1  0.1903 16.303500 10.948100  6.731820
71   1  0.2283 15.171000 20.719400  7.783690
72   1  0.2032 16.124700  1.193090  6.211370
73   1  0.1521  3.266860 12.499800  7.547070
74   1  0.1879  4.370560 17.324800  6.522920
75   1  0.2180  2.242760  6.045940  7.454080
76   1  0.1503  5.673930 10.595800  6.910170
77   1  0.1812  7.776010 12.661800  6.410950
78   1  0.2808  9.168020 20.037800  8.270800
79   1  0.2168  3.102750 20.221800  6.801760
80   1  0.2008  4.360610  4.119030  6.428470
81   1  0.1883  6.892850  5.605920  7.289720
82   1  0.3104  7.976060 10.512500  8.656090
83   1  0.2124 10.827200 13.109700  7.032990
84   1  0.1546 13.927800 18.136300  7.295200
85   1  0.2024  6.355030 21.185700  6.930460
86   1  0.2169  9.783130  3.899280  7.435790
87   1  0.2657 12.354700  4.798550  6.002280
88   1  0.2543 13.224000 10.946000  7.414320
89   1  0.2132 15.257200 13.368400  7.625200
90   1  0.1613  1.395060 17.481200  7.004190
91   1  0.1886 11.844200 20.741600  7.252490
92   1  0.1681 14.601900  3.321140  7.696140
93   1  0.1888 14.831200  6.246750  7.617620
94   1  0.2827  0.553290 12.115600  8.518600
95   1  0.2443 16.442600 18.905700  5.925380
96   1  0.2264 17.270100  5.190490  6.309100
97   1  0.8399  1.987900 13.464300 25.889700
98   1  0.8509  4.348710 17.297400 25.845500
99   1  0.8523  2.131980  6.093310 25.716400
100  1  0.8490  3.936380  9.852680 25.598100
101  1  0.8293  6.014090 13.572400 25.859400
102  1  0.8713  8.771940 17.238100 26.133200
103  1  0.8474  2.194290 20.847500 25.892200
104  1  0.8765  4.139920  2.778770 25.926000
105  1  0.8661  6.317880  6.160990 25.951800
106  1  0.8504  8.213920  9.725570 26.138100
107  1  0.9137 10.888300 13.381100 26.023800
108  1  0.8076 13.222900 17.399800 26.070300
109  1  0.7984  6.631810 20.739300 25.742200
110  1  0.8764  8.409140  2.745770 25.930100
111  1  0.8745 10.447400  6.152680 25.829700
112  1  0.9308 12.975400 10.026700 26.204900
113  1  0.8745 15.166900 13.776000 25.709800
114  1  0.8719 -0.318525 16.880800 25.663300
115  1  0.9020 11.057700 20.911400 26.155000
116  1  0.8656 12.735300  2.839680 25.855500
117  1  0.8292 15.035700  6.237360 25.917800
118  1  0.8218 -0.501601  9.763740 25.987000
119  1  0.8212 15.301600 20.802500 26.027100
120  1  0.7882 17.403800  2.982760 25.899400
121  1  0.8524  1.982400 16.039000 15.707400
122  1  0.7579  3.955560 19.903300 15.454900
123  1  0.8957  1.831730  8.844890 15.413700
124  1  0.8020  3.883340 12.416500 15.493800
125  1  0.8500  6.428470 15.689600 15.082800
126  1  0.8793  8.699940 19.606100 15.029400
127  1  0.8671  2.115050  1.617030 15.470500
128  1  0.7619  4.889230  5.121420 15.564000
129  1  0.7766  6.837100  8.646560 15.632900
130  1  0.8894  8.611150 12.576800 15.221700
131  1  0.8355 11.049400 16.321700 15.025300
132  1  0.7916 13.252300 19.754400 15.043900
133  1  0.8530  6.727830  1.404110 15.715900
134  1  0.7473  8.507730  4.969570 15.594700
135  1  0.9024 11.179800  8.909360 15.053700
136  1  0.8428 12.937600 12.547300 15.512800
137  1  0.8788 15.384500 16.138100 15.036800
138  1  0.8885 -0.380312 20.099400 15.878900
139  1  0.8430 11.120800  1.008460 15.331000
140  1  0.8415 13.525700  4.914960 15.603000
141  1  0.8376 15.423600  8.849530 15.732000
142  1  0.8349 -0.219279 12.617300 15.725000
143  1  0.8509 15.373700  1.237340 15.348800
144  1  0.8388 -0.392502  5.041800 15.908500
145  1  0.1489  1.077650 13.145200 20.664400
146  1  0.1893  4.125080 17.911100 20.349200
147  1  0.2704  2.187730  3.428460 19.460200
148  1  0.2144  3.572910 11.284300 20.469200
149  1  0.1607  7.027310 12.889900 20.775100
150  1  0.1251  8.944450 17.653400 20.858200
151  1  0.1928  1.551960 19.602800 20.548200
152  1  0.1909  4.981520  2.848050 20.559300
153  1  0.2356  6.016890  5.700520 19.373000
154  1  0.2081  8.210960 10.031000 20.341900
155  1  0.1835  9.931520 12.800800 20.118400
156  1  0.1766 13.243900 17.377200 21.186300
157  1  0.2123  6.708290 19.505400 19.835700
158  1  0.2107  7.876530  3.837390 21.419700
159  1  0.1706 10.549000  5.653750 20.401000
160  1  0.1950 13.478400  9.664170 20.907100
161  1  0.1756 15.807500 12.298700 21.230200
162  1  0.1853 16.921400 17.997100 21.187900
163  1  0.2647 11.441300 19.100800 19.511600
164  1  0.2169 12.770100  3.497460 20.316900
165  1  0.2140 15.422700  5.291020 19.880500
166  1  0.2195 17.656700  9.987230 20.485500
167  1  0.2087 14.600700 20.172000 20.223600
168  1  0.1666 17.359300  3.017860 20.755900
169  1  0.1705  1.623490 16.259800 20.740000
170  1  0.2033  4.451270 20.675700 21.557800
171  1  0.2231  2.301380  8.564530 20.835200
172  1  0.2177  4.002790 14.004700 21.264500
173  1  0.1653  6.415520 15.931700 20.578100
174  1  0.1847  9.120520 20.529400 21.347100
175  1  0.1669  2.536510  0.826945 20.819200
176  1  0.1740  3.650020  5.816250 21.004600
177  1  0.1860  5.278210  8.586410 20.577500
178  1  0.2796  8.715650 14.964100 22.220200
179  1  0.1436 11.113900 15.520900 20.322600
180  1  0.1844 11.950800 21.706200 20.825800
181  1  0.2011  6.839480  0.591824 21.347000
182  1  0.1670  7.941290  7.003340 21.166300
183  1  0.2116 10.753700  8.623500 21.194500
184  1  0.1744 12.881700 12.710700 20.658100
185  1  0.1766 14.727100 14.927500 20.240700
186  1  0.2322 -0.450217 21.478700 21.251900
187  1  0.2033  9.765200  1.734600 20.628500
188  1  0.1853 13.161500  6.352450 21.326900
189  1  0.1917 15.654500  7.802920 21.345900
190  1  0.2712 17.200000 14.991400 22.157900
191  1  0.2254 14.532800  1.256870 21.164500
192  1  0.1745  0.363986  5.808830 21.006700
193  1  0.7714  2.005490 15.936500 39.714900
194  1  0.8427  4.077180 19.479300 40.404700
195  1  0.8543  1.805290  8.730880 39.807400
196  1  0.8541  3.974130 12.202000 40.224600
197  1  0.7987  6.227420 15.894600 39.758900
198  1  0.8128  8.342600 19.847500 40.116900
199  1  0.8238  1.746330  1.895340 39.978000
200  1  0.8282  4.229870  5.222800 39.999200
201  1  0.9228  6.538770  8.560940 40.500100
202  1  0.8647  8.747180 12.134300 40.234100
203  1  0.8421 11.028000 16.054700 40.031500
204  1  0.8168 13.167400 20.060100 40.113200
205  1  0.8408  6.550940  1.519220 40.230300
206  1  0.8835  8.619220  5.183930 40.310800
207  1  0.9047 10.932400  8.493170 40.633300
208  1  0.8428 12.959400 12.456700 40.247000
209  1  0.8343 15.358800 16.099100 40.389500
210  1  0.8611 -0.243073 19.755900 40.315100
211  1  0.8001 10.748600  1.419770 40.270100
212  1  0.8223 12.881600  5.199120 39.805600
213  1  0.8047 15.006600  8.703480 40.243700
214  1  0.8122 -0.156189 12.576400 39.849200
215  1  0.8078 15.248100  1.553300 39.975400
216  1  0.8279  0.011063  5.354350 40.172900
217  1  0.8571 17.344900 14.660500 29.344300
218  1  0.8712  1.510440 18.177600 29.321200
219  1  0.8347 17.239400  7.702180 29.172900
220  1  0.8060  1.958400 10.757600 28.825400
221  1  0.8120  3.867300 14.548900 29.236900
222  1  0.8269  6.391090 18.468200 29.253800
223  1  0.8492 -0.011417 21.935000 29.295500
224  1  0.8061  1.712610  3.741180 29.271100
225  1  0.8746  3.819610  7.219860 29.029200
226  1  0.8790  6.213270 10.521800 29.111600
227  1  0.7181  8.256510 14.868400 29.651400
228  1  0.8279 10.565900 18.372500 29.481300
229  1  0.8468  4.300550 -0.234071 29.178900
230  1  0.8430  6.354050  3.613770 28.970200
231  1  0.8555  8.386630  7.270410 29.209700
232  1  0.8584 10.686200 11.082300 29.174800
233  1  0.8227 13.232700 15.148400 29.213000
234  1  0.7630 15.393900 18.626500 29.121700
235  1  0.8954  8.469420  0.280631 29.011300
236  1  0.8620 10.694800  4.009870 29.010900
237  1  0.8345 13.026900  7.437830 29.233900
238  1  0.8741 15.571900 11.268500 29.217800
239  1  0.7846 12.707900 22.470500 29.002400
240  1  0.8105 15.310600  3.873840 29.007200
241  1  0.1778  2.052150 14.010100 34.009000
242  1  0.2053  3.735170 19.090600 34.830700
243  1  0.2861  1.995220  7.696970 33.379500
244  1  0.1506  4.574680 13.046900 34.673200
245  1  0.1572  6.515750 15.334000 33.767800
246  1  0.2367  8.502650 20.797900 34.729200
247  1  0.1618  3.047340  0.325704 34.510700
248  1  0.1388  4.089300  5.842290 34.870800
249  1  0.1435  7.271840  6.638060 34.704700
250  1  0.1351  8.986260 13.633100 34.159800
251  1  0.1442 11.600200 15.314300 34.579200
252  1  0.1489 13.618600 20.087500 34.201200
253  1  0.1796  6.251380  0.846145 34.750600
254  1  0.1627  9.403560  4.756460 34.974800
255  1  0.1602  9.925590  7.791270 34.171900
256  1  0.2015 12.741900 12.478800 34.691900
257  1  0.2076 14.456800 15.346100 34.233300
258  1  0.1872  1.012830 19.827400 35.335400
259  1  0.1614 11.604800 22.078100 34.833000
260  1  0.1606 12.716000  6.222560 35.119100
261  1  0.1971 15.068800  7.470790 33.824800
262  1  0.1655 -0.015501 12.095600 34.676900
263  1  0.2455 16.336700 20.727700 33.643800
264  1  0.1958 17.342100  5.639840 34.566800
265  1  0.1726 17.203400 15.034900 35.397400
266  1  0.1590  1.564220 17.021000 34.225400
267  1  0.1905 17.571200  8.512330 35.285100
268  1  0.1821  2.649410 10.810500 34.915900
269  1  0.1809  4.247270 15.938700 35.453100
270  1  0.1950  6.475430 18.128800 34.620400
271  1  0.2049  0.101555  0.871582 35.308000
272  1  0.1705  2.079780  3.322340 34.164600
273  1  0.1712  5.068050  9.050430 34.486400
274  1  0.1683  6.899800 11.243400 34.411100
275  1  0.2236  8.708080 16.291100 35.679900
276  1  0.1625 10.978400 18.748600 34.776900
277  1  0.2283  4.306300  2.756850 35.872700
278  1  0.1497  6.548860  3.698750 34.106600
279  1  0.3037  8.239770  9.272150 36.155200
280  1  0.1600 10.211400 11.020800 34.535400
281  1  0.2400 13.648700 17.612800 35.879800
282  1  0.1415 16.353900 18.007900 34.762500
283  1  0.1941  9.134620  1.900310 34.082200
284  1  0.2023 11.999700  3.236590 33.865800
285  1  0.1634 12.582400  9.491630 34.462900
286  1  0.1750 15.245800 10.465500 34.963500
287  1  0.1777 14.724200  1.166050 34.969300
288  1  0.2064 14.793300  4.135700 34.639400
289  2 -0.8245 -0.177472 14.708300 41.702800
290  2 -0.7422  2.143970 18.469600 42.204900
291  2 -0.8204 -0.161185  7.699670 41.804300
292  2 -0.8048  1.881810 11.070600 41.599300
293  2 -0.7869  4.221470 14.648300 -0.189852
294  2 -0.7318  6.196670 18.212200 41.799900
295  2 -0.7396 -0.263910  0.063328  0.318629
296  2 -0.8258  1.878070  3.774620 41.772500
297  2 -0.7750  4.271210  7.594400  0.125532
298  2 -0.7989  6.507200 10.876400 41.811500
299  2 -0.7199  8.930480 15.005900 -0.095249
300  2 -0.7339 11.153000 18.316500 41.750600
301  2 -0.6318  4.374950  0.322098 41.708800
302  2 -0.7706  6.557340  3.999330 41.620100
303  2 -0.8050  8.635870  7.210920  0.272135
304  2 -0.7572 10.867300 10.896600  0.411237
305  2 -0.7618 12.972600 14.784900 41.695300
306  2 -0.6924 15.383800 18.482300 41.966100
307  2 -0.8548  8.874430 22.254200 41.942500
308  2 -0.7984 10.626700  3.740180  0.419214
309  2 -0.8418 12.943300  7.327990 41.696600
310  2 -0.7913 14.998000 11.263300 41.834000
311  2 -0.7841 13.275500 22.275400 41.765500
312  2 -0.7395 15.055300  4.104930 41.493500
313  2 -0.7058  2.054570 15.868200  3.197590
314  2 -0.5951  4.696020 20.351200  3.275360
315  2 -0.6210  2.168150  8.524020  3.312490
316  2 -0.6466  4.100590 12.462000  3.227690
317  2 -0.5960  6.342310 16.194300  3.163370
318  2 -0.6809  9.020910 19.730300  3.131330
319  2 -0.6668  1.974880  1.582720  3.126900
320  2 -0.6331  3.984590  5.149200  2.954080
321  2 -0.6823  6.613420  8.330010  3.186540
322  2 -0.7290  8.546250 12.319600  3.114690
323  2 -0.6771 10.808000 16.019700  3.319420
324  2 -0.6575 13.292800 20.238500  3.531360
325  2 -0.6740  6.228670  1.299110  2.976810
326  2 -0.6764  8.970530  4.905270  3.537930
327  2 -0.6381 11.130200  8.554980  3.250300
328  2 -0.5702 13.631000 12.373600  3.520960
329  2 -0.6324 15.063400 15.797400  2.999640
330  2 -0.7267 -0.342596 19.480600  3.179830
331  2 -0.6151 10.951500  1.242870  3.466840
332  2 -0.6032 13.223600  5.244950  3.055190
333  2 -0.5843 15.451800  8.506280  3.081600
334  2 -0.6474 -0.527225 12.665500  3.346250
335  2 -0.6480 14.997100  1.569090  3.053340
336  2 -0.6013 -0.395688  5.237010  3.050530
337  2 -0.6828  1.861100 16.458500 11.073000
338  2 -0.5767  4.422590 19.920600 10.853900
339  2 -0.6588  1.930520  8.742170 10.900100
340  2 -0.7301  4.390310 12.270100 10.924900
341  2 -0.7144  6.436850 16.338600 10.841000
342  2 -0.6648  8.405810 19.754100 10.993600
343  2 -0.6560  1.809820  1.335980 10.739500
344  2 -0.6508  4.228490  5.201040 10.719900
345  2 -0.6844  6.238020  8.827610 10.935900
346  2 -0.7007  8.861680 12.404200 10.830500
347  2 -0.6957 10.771600 16.218000 10.240300
348  2 -0.7046 13.130000 20.110700 10.847400
349  2 -0.6781  7.217280  1.609140 10.870300
350  2 -0.6406  8.974600  5.350120 10.841700
351  2 -0.7323 10.601000  8.646400 10.612100
352  2 -0.6908 13.099200 11.927300 10.476900
353  2 -0.6989 15.683900 15.957800 10.771800
354  2 -0.5822  0.128647 19.582900 10.688500
355  2 -0.6383 10.745500  1.910370 10.898900
356  2 -0.6297 12.832100  5.021360 10.851100
357  2 -0.7564 15.279400  8.657680 10.612900
358  2 -0.7496  0.075385 12.681600 11.011300
359  2 -0.6618 14.948000  0.942336 10.921600
360  2 -0.6754 -0.170276  5.101120 10.958600
361  2 -0.7849  1.812430 13.865900 14.102400
362  2 -0.7718  4.153380 16.978700 13.761000
363  2 -0.6623  1.777520  6.340420 14.068500
364  2 -0.7471  4.291130  9.945700 14.075700
365  2 -0.7873  6.309120 13.336300 13.757000
366  2 -0.7825  8.647270 17.209200 13.673300
367  2 -0.7414  1.786390 21.160400 14.171800
368  2 -0.7446  4.654160  2.619370 14.021300
369  2 -0.8497  6.748010  6.484840 13.921000
370  2 -0.7825  8.950710 10.015200 13.904000
371  2 -0.7117 10.789200 13.694300 13.588700
372  2 -0.8212 13.226900 17.070900 13.438200
373  2 -0.7355  6.528050 21.243300 13.846500
374  2 -0.7743  8.761800  2.858140 13.796900
375  2 -0.7250 11.324700  6.447650 13.704500
376  2 -0.7417 13.346400  9.978850 13.861900
377  2 -0.6994 15.412900 13.717100 13.740300
378  2 -0.7079 -0.077801 17.697000 14.231000
379  2 -0.8474 10.894800 20.793200 13.696100
380  2 -0.7263 12.814200  2.590680 13.573500
381  2 -0.7207 15.345900  6.227910 13.863300
382  2 -0.7771 -0.322531  9.746990 14.085700
383  2 -0.7986 15.660200 20.780800 13.755000
384  2 -0.7123 17.579200  2.604400 14.140700
385  2 -0.6370 17.507300 15.378600 16.872100
386  2 -0.6601  1.626520 18.768800 17.122300
387  2 -0.6818 17.524900  7.537420 17.203000
388  2 -0.7058  1.665020 11.210200 16.969100
389  2 -0.6484  4.435850 14.923700 17.138300
390  2 -0.6035  6.365530 18.105400 16.451900
391  2 -0.6800 17.518400  0.541227 16.990500
392  2 -0.6309  2.330070  4.088300 16.533500
393  2 -0.6498  3.828570  7.646180 16.807700
394  2 -0.6096  6.570850 11.108000 17.100400
395  2 -0.6302  9.029640 14.817600 16.543500
396  2 -0.6309 10.804000 19.046200 16.561900
397  2 -0.6496  4.388210  0.338016 17.042300
398  2 -0.7991  6.575330  3.606240 17.409300
399  2 -0.6450  9.346210  7.790070 16.812700
400  2 -0.6159 10.791100 11.301500 16.470400
401  2 -0.6277 13.141300 15.148100 16.580700
402  2 -0.6119 15.068600 18.453100 16.889100
403  2 -0.6103  8.823930 21.584400 16.972500
404  2 -0.5847 10.929300  3.429110 16.743700
405  2 -0.6258 13.159600  7.405920 17.144800
406  2 -0.6563 15.194900 11.541300 16.980000
407  2 -0.6739 13.342500 22.475300 16.809300
408  2 -0.7388 15.305000  3.652060 16.958300
409  2 -0.7912 17.540200 14.508900 24.826600
410  2 -0.6476  1.966030 18.468800 24.502400
411  2 -0.6493 -0.205635  7.247670 24.567300
412  2 -0.7019  1.746390 10.907600 24.395900
413  2 -0.7193  4.137720 15.090700 24.343600
414  2 -0.7290  6.614820 18.306100 24.378000
415  2 -0.5829 -0.450718 21.862000 24.614000
416  2 -0.7045  1.992290  3.578210 24.403100
417  2 -0.6911  4.221610  7.302630 24.367000
418  2 -0.6945  6.180140 10.988000 24.606300
419  2 -0.6474  8.860630 14.807700 25.021500
420  2 -0.6144 11.232300 18.445400 24.574700
421  2 -0.6860  4.224960 22.337000 24.597500
422  2 -0.7238  6.399850  3.839890 24.563100
423  2 -0.7108  8.387120  7.642440 24.619000
424  2 -0.6385 10.980600 11.141500 24.855000
425  2 -0.6556 12.734900 14.524300 24.396300
426  2 -0.7157 15.436200 18.387100 24.509100
427  2 -0.6595  8.874520 21.950700 24.649100
428  2 -0.7275 10.560000  3.792370 24.657100
429  2 -0.6510 13.087600  7.650190 24.687700
430  2 -0.6421 15.124400 11.275700 24.758000
431  2 -0.6349 12.988200  0.116123 24.620000
432  2 -0.6862 15.011900  4.069970 24.353700
433  2 -0.7006  2.026960 15.890800 27.490500
434  2 -0.7870  4.462020 19.562500 27.666600
435  2 -0.7921  1.804430  8.400330 27.433100
436  2 -0.7729  4.192090 12.169500 27.482000
437  2 -0.7354  6.452450 15.858400 27.599800
438  2 -0.7522  8.967510 19.740500 27.535800
439  2 -0.7242  1.900130  1.223940 27.742700
440  2 -0.8190  4.245870  4.905330 27.598600
441  2 -0.8238  6.094550  8.580670 27.612500
442  2 -0.6622  8.445840 12.328800 27.733000
443  2 -0.7252 10.998100 16.287600 27.470100
444  2 -0.7761 12.818800 19.810800 27.867500
445  2 -0.7873  6.387010  1.351330 27.513500
446  2 -0.8496  8.660370  5.152940 27.566800
447  2 -0.7101 10.732200  8.751730 27.575700
448  2 -0.6878 13.150500 12.407100 27.443300
449  2 -0.8060 15.553700 15.949600 27.437500
450  2 -0.7130 -0.095916 19.541800 27.278600
451  2 -0.7771 10.570700  1.624360 27.574200
452  2 -0.7682 12.717700  5.170750 27.282500
453  2 -0.7814 14.949000  8.913370 27.735100
454  2 -0.7388 17.485100 12.323600 27.535600
455  2 -0.7175 15.178400  1.710810 27.178900
456  2 -0.7562 -0.229995  5.387630 27.632800
457  2 -0.6462  1.856120 13.283600 30.487200
458  2 -0.6194  3.827490 17.231100 30.743400
459  2 -0.6504  1.512890  6.244270 30.589900
460  2 -0.6246  3.945800  9.491590 30.576700
461  2 -0.6284  6.231630 12.946600 30.788600
462  2 -0.7206  8.228950 17.745000 30.886000
463  2 -0.6364  1.874240 20.354500 30.732300
464  2 -0.6139  4.063260  2.294870 30.396300
465  2 -0.6140  6.076990  6.195060 30.638400
466  2 -0.6302  8.620890  9.691780 30.719800
467  2 -0.6103 11.068900 13.332800 30.525700
468  2 -0.6517 13.161500 17.215200 31.042000
469  2 -0.5865  6.601440 21.013200 30.744500
470  2 -0.6484  8.637700  2.564380 30.420600
471  2 -0.6556 10.573600  6.445430 30.582900
472  2 -0.5684 13.151500 10.192700 30.525800
473  2 -0.6061 15.124300 13.863200 30.754600
474  2 -0.6806 -0.400774 17.121400 30.715700
475  2 -0.5782 10.468000 20.994300 30.662900
476  2 -0.6422 13.157800  2.828700 30.477500
477  2 -0.6724 15.165800  6.106880 30.576100
478  2 -0.6830 17.228800  9.990070 30.837600
479  2 -0.6474 15.696900 21.037700 30.558700
480  2 -0.6056 -0.395375  2.151440 30.902400
481  2 -0.7214  2.279230 13.372700 38.496100
482  2 -0.7111  3.988950 17.277000 38.510000
483  2 -0.7010  1.945000  6.344510 38.401400
484  2 -0.6115  4.074790  9.774440 38.837900
485  2 -0.5882  6.741100 12.921900 38.468000
486  2 -0.6277  8.488240 17.325100 38.572100
487  2 -0.5754  2.226980 21.137300 38.692900
488  2 -0.6520  4.258100  2.600990 38.980300
489  2 -0.6563  6.451000  6.282750 38.988600
490  2 -0.5943  8.645640  9.576880 39.218300
491  2 -0.6247 10.524100 13.265200 38.594600
492  2 -0.6531 13.312100 17.393400 38.799700
493  2 -0.5858  6.324690 20.673900 38.603200
494  2 -0.6259  8.538580  2.513290 38.455900
495  2 -0.6594 10.694200  6.482310 38.667500
496  2 -0.5870 12.449100  9.886590 38.769800
497  2 -0.6643 15.208100 13.456400 38.790500
498  2 -0.6663 -0.487847 17.596400 38.834300
499  2 -0.6450 10.686000 20.718200 38.919100
500  2 -0.6621 12.929500  2.651380 38.560000
501  2 -0.6009 15.469500  6.341120 38.635400
502  2 -0.6354 17.184400  9.877720 38.853700
503  2 -0.6543 15.820900 21.030800 38.570400
504  2 -0.6481 17.419100  3.121640 38.556900

