Generated by pymatgen.io.lammps.data.LammpsData

360  atoms

  2  atom types

0.000000 16.677463  xlo xhi
0.000000 21.699897  ylo yhi
0.000000 28.493178  zlo zhi

Masses

1  208.9804
2   78.9600

Atoms

1    1  0.7922  2.087210 12.503700 20.460300
2    1  0.8238  3.831410 16.111000 20.524100
3    1  0.8158  1.682560  5.143630 20.906900
4    1  0.7456  4.351650  9.191010 20.606800
5    1  0.6839  7.060790 12.477600 20.108200
6    1  0.7668  7.700970 16.152500 20.276500
7    1  0.7194  1.865610 19.348300 20.015900
8    1  0.7843  4.071850  1.194720 20.514700
9    1  0.8239  6.122920  4.989950 20.462300
10   1  0.7352  8.614370  8.677910 20.492300
11   1  0.8264 10.398800 12.037800 21.028600
12   1  0.7895 12.367700 15.872600 19.985600
13   1  0.8120  6.157480 20.008400 20.413300
14   1  0.7763  8.215640  1.718350 20.982200
15   1  0.7332 10.351400  5.191120 20.202200
16   1  0.9452 12.851300  8.825700 20.531500
17   1  0.8412 14.594800 12.653900 20.223900
18   1  0.7308 16.542200 16.092400 20.621400
19   1  0.8533 10.314900 19.547700 20.121800
20   1  0.8092 13.071400  0.783146 20.193200
21   1  0.7884 14.155800  5.417890 19.878200
22   1  0.7654  0.048582  8.702270 20.309100
23   1  0.7220 14.285100 19.178500 20.595100
24   1  0.8514  0.438413  1.444360 20.831900
25   1  0.6981  2.132050 12.283000 27.038600
26   1  0.7971  4.345840 15.671300 26.231700
27   1  0.8627  2.170070  5.488610 26.362100
28   1  0.7699  4.298300  9.053790 26.031100
29   1  0.6895  7.030080 11.914900 26.106300
30   1  0.7508  8.642730 15.824900 26.532400
31   1  0.8786  2.298530 19.546800 26.275500
32   1  0.8698  3.825500  2.165760 25.844000
33   1  0.7123  6.175980  5.223240 26.440300
34   1  0.7677  8.684220  7.932310 26.543600
35   1  0.6681 10.482500 12.079300 26.882100
36   1  0.7961 12.493500 15.517400 27.009700
37   1  0.8867  5.856420 20.065200 26.493900
38   1  0.7073  8.431370  1.468220 26.603800
39   1  0.7968 10.709500  5.068830 26.220700
40   1  0.7674 12.542000  8.653830 26.732400
41   1  0.7155 14.998700 12.076000 26.795300
42   1  0.8211  0.169037 15.224800 26.436900
43   1  0.8375 10.126300 19.578300 26.476000
44   1  0.8011 12.776700  1.454190 26.501300
45   1  0.7380 14.866800  5.050180 26.708300
46   1  0.7695  0.296376  8.925140 25.835000
47   1  0.6229 14.415400 19.665900 26.995000
48   1  0.7803  0.295471  1.428350 26.350400
49   1  0.7473  2.153310 14.158300  1.283980
50   1  0.8765  4.115810 18.181300  1.187230
51   1  0.8980  1.978650  7.439970  1.038650
52   1  0.8460  4.031480 11.088200  1.802010
53   1  0.8258  6.730960 14.862100  1.749900
54   1  0.7581  8.541560 18.263100  1.782290
55   1  0.7340  2.815170  0.997134  1.362360
56   1  0.8011  4.227090  4.234680  1.550940
57   1  0.8085  6.017340  7.295960  1.613350
58   1  0.8637  7.845780 10.996100  1.382900
59   1  0.8508 10.588700 14.474400  2.012630
60   1  0.7521 12.270600 18.874200  1.151830
61   1  0.7725  6.067220  0.514785  2.284810
62   1  0.6910  8.606040  2.802780  1.358370
63   1  0.8418 10.017900  7.504230  1.286880
64   1  0.7445 11.686900 10.791900  1.476360
65   1  0.8651 14.741300 14.742200  1.643420
66   1  0.7810  0.100615 19.178800  1.804520
67   1  0.7327 10.615000  0.696765  1.565140
68   1  0.8640 12.832700  3.701690  1.834610
69   1  0.8219 14.462400  7.250800  1.531590
70   1  0.7389 16.377600 11.042700  1.141970
71   1  0.6890 14.662300  0.095568  1.196240
72   1  0.7960 16.599800  3.584940  1.301910
73   1  0.7244  2.216860 15.315700  7.152420
74   1  0.7487  4.427220 18.562600  7.971980
75   1  0.6769  1.562110  8.058710  8.008950
76   1  0.7322  3.949450 11.668600  7.305300
77   1  0.7654  6.391240 15.536000  7.810510
78   1  0.8735  8.194820 18.605000  7.341190
79   1  0.8300  2.050930  0.545633  7.724020
80   1  0.8464  3.994830  4.222650  7.173770
81   1  0.8320  6.411440  7.602870  6.567670
82   1  0.6865  8.523780 11.043800  7.942540
83   1  0.6666 10.678500 15.278500  8.409420
84   1  0.7719 12.722800 18.733600  7.659590
85   1  0.7833  5.874450  0.733084  7.813680
86   1  0.7976  8.128490  3.839950  7.437720
87   1  0.8069 10.149900  6.469080  6.761530
88   1  0.7913 12.246400 11.644300  6.768130
89   1  0.8581 14.531200 14.808400  7.495940
90   1  0.8409 16.308300 18.582500  7.307110
91   1  0.7446 10.321900  0.485744  7.694340
92   1  0.7255 12.688800  3.532990  7.435190
93   1  0.7795 14.335000  7.246570  7.433280
94   1  0.8092 16.592400 11.413000  7.477550
95   1  0.7385 14.405400  0.109103  7.450120
96   1  0.7502 16.387600  3.939830  7.417130
97   1  0.6771 16.505000 13.472700 11.131700
98   1  0.8239  2.273910 17.069500 10.573300
99   1  0.6469 16.664700  6.676970 11.038200
100  1  0.6917  2.331800  9.809670 11.092300
101  1  0.8814  3.793230 13.223300 11.058100
102  1  0.7760  6.676100 17.988500 11.030800
103  1  0.8120 16.641200 20.334300 11.144000
104  1  0.7344  1.806830  3.062570 11.015400
105  1  0.7177  4.194760  6.186430 10.779500
106  1  0.7756  6.779710  9.469350 11.290600
107  1  0.7166  8.265010 14.055400 10.360000
108  1  0.7668 10.375300 17.244400 11.561500
109  1  0.7894  4.200860 21.063600 11.226400
110  1  0.7673  6.200860  2.783190 11.069700
111  1  0.8781  8.973450  5.941400 11.068700
112  1  0.7002 10.676800  9.827790 10.131100
113  1  0.7238 12.454100 13.700900 10.917100
114  1  0.8653 15.044200 17.016300 11.362100
115  1  0.8195  8.493960 20.855200 10.800400
116  1  0.8253 10.500700  2.638820 10.929700
117  1  0.7087 12.688700  7.241530 10.623300
118  1  0.7069 14.885000 10.434900 10.846900
119  1  0.8292 12.685500 21.069400 11.140700
120  1  0.8379 14.719200  3.333240 11.422700
121  1  0.7918  0.381289 13.544400 17.092400
122  1  0.9019  1.941850 17.105800 16.626100
123  1  0.9074  0.112605  6.450760 16.814800
124  1  0.7557  1.934480  9.854290 17.297700
125  1  0.8671  4.382390 13.788700 16.503700
126  1  0.8233  6.347450 16.932600 17.019700
127  1  0.8153  0.004537 21.384400 17.031300
128  1  0.7471  1.758920  2.919870 17.040000
129  1  0.8785  4.134430  6.371760 17.224300
130  1  0.7420  6.310180 10.015300 16.743300
131  1  0.7270  8.057250 13.427900 17.030000
132  1  0.7775 10.857500 17.596100 17.096700
133  1  0.8809  3.835120 20.409400 16.624900
134  1  0.7806  5.653560  2.565720 17.094900
135  1  0.6577  8.052310  6.353670 17.188600
136  1  0.8072 10.356000  9.531680 17.131700
137  1  0.8174 12.254500 13.296800 17.265800
138  1  0.8387 14.673300 17.460500 17.049700
139  1  0.8602  8.288380 20.565000 16.368300
140  1  0.7641 10.199000  2.912860 16.811900
141  1  0.6316 11.932400  6.036120 16.940500
142  1  0.9146 14.439000  9.679400 17.098100
143  1  0.7802 12.236400 21.437500 17.046600
144  1  0.7480 14.275000  2.663200 16.758900
145  2 -0.9891 16.624300 13.449800 28.490100
146  2 -0.6807  1.959800 16.955600 28.171600
147  2 -0.8378  0.111763  6.317350 28.311200
148  2 -0.8558  2.347490 10.075200 28.249100
149  2 -0.7486  4.784310 13.559300 28.331900
150  2 -0.7529  6.019300 17.040700 28.060400
151  2 -0.8306  0.678169 20.919400 28.371600
152  2 -0.8564  2.317750  3.021770 27.970200
153  2 -0.8636  3.941190  6.622800 28.117000
154  2 -0.7711  5.894980 10.163700 28.399900
155  2 -0.8653  8.485500 13.576700  0.121554
156  2 -0.8643 10.539200 17.306200 28.267900
157  2 -0.7785  4.036390 20.173800 28.357300
158  2 -0.7693  5.816280  2.268440 28.326800
159  2 -0.8380  8.606400  5.925610 28.261700
160  2 -0.9441  9.902030  9.660000 28.093500
161  2 -0.8879 12.455100 13.413800  0.275022
162  2 -0.7114 14.689000 16.664600 28.445100
163  2 -0.8078  7.732580 21.128400 28.092400
164  2 -0.8151 11.135800  3.064630 28.117500
165  2 -0.8324 12.623800  6.508280 28.346300
166  2 -0.8543 15.040900  9.307070 28.139700
167  2 -0.9525 11.920800 21.049200 27.883800
168  2 -0.9335 14.803100  2.566830 28.324300
169  2 -0.3857  2.301220 15.262400 24.608300
170  2 -0.3811  4.343350 18.511300 24.898700
171  2 -0.4602  2.183920  7.439630 24.633800
172  2 -0.2985  3.935220 11.396400 24.357200
173  2 -0.3156  6.569150 14.758000 24.398200
174  2 -0.3616  8.354980 18.197300 25.177300
175  2 -0.5297  2.364790  0.303628 25.176600
176  2 -0.5332  3.977580  4.596110 25.016900
177  2 -0.3930  6.754520  7.261630 24.652000
178  2 -0.3595  9.170180 10.463200 24.695600
179  2 -0.2758 10.792800 14.498800 24.697200
180  2 -0.2351 12.035200 18.285400 24.957700
181  2 -0.4030  6.669970  0.273106 24.733300
182  2 -0.3302  9.020970  3.696860 24.309800
183  2 -0.3277 10.617300  7.530410 24.658400
184  2 -0.3483 12.480500 10.365200 24.960500
185  2 -0.3299 14.267500 14.875800 25.223600
186  2 -0.3367 15.845800 18.266100 25.251000
187  2 -0.3445 10.741300  0.552814 24.908900
188  2 -0.3218 12.995800  3.879340 24.761500
189  2 -0.2526 14.782000  7.220740 24.387600
190  2 -0.5145  0.368754 11.887500 25.177800
191  2 -0.2783 15.156600  0.455107 24.397600
192  2 -0.3460  0.436507  3.396520 24.641600
193  2 -0.4199 16.559200 13.993500 21.984100
194  2 -0.2910  1.636110 17.756400 22.820000
195  2 -0.3464 16.329800  6.126820 22.167800
196  2 -0.4081  1.749210 10.319600 22.030100
197  2 -0.3248  4.604260 13.178300 21.912800
198  2 -0.3798  5.607650 17.392000 21.973000
199  2 -0.3304 16.614500 21.148600 22.392100
200  2 -0.3878  2.154310  2.691790 22.399200
201  2 -0.3279  4.264240  7.031140 22.167600
202  2 -0.4106  6.456120 10.326700 22.082800
203  2 -0.3743  8.989770 13.691100 22.299700
204  2 -0.3788 10.427700 16.832700 21.453300
205  2 -0.5040  4.291790 20.711200 21.849500
206  2 -0.4616  5.652840  2.826410 22.188100
207  2 -0.3588  8.490940  6.482650 22.073400
208  2 -0.3585 11.314500  9.839730 22.158600
209  2 -0.2865 12.765400 13.447700 22.198700
210  2 -0.3978 13.716700 16.786700 21.914400
211  2 -0.2624  8.691240 20.051800 22.413500
212  2 -0.2595 10.661000  2.230860 22.056800
213  2 -0.3211 12.504500  6.497620 21.943600
214  2 -0.3459 14.843900 10.041500 22.022000
215  2 -0.3901 12.325600 20.474400 21.991500
216  2 -0.3765 14.721800  2.916760 21.152200
217  2 -0.9134  2.239450 11.887400  9.445260
218  2 -0.8447  4.225500 15.610400  9.522150
219  2 -0.8490  1.936790  5.378250  8.578100
220  2 -0.7410  4.946730  8.026600  8.787360
221  2 -0.7171  5.818500 12.337300  9.929610
222  2 -0.9565  8.262480 16.672600  9.155740
223  2 -0.8143  2.114260 19.572300  9.368180
224  2 -0.8820  3.901320  1.912530  9.246970
225  2 -0.7127  7.061710  5.387850  9.328320
226  2 -0.6961  8.663970  7.838950  9.125060
227  2 -0.9144 10.180800 12.328800  9.610850
228  2 -0.8330 12.885700 16.178400  9.487280
229  2 -0.9332  6.513990 19.814100  9.264050
230  2 -0.8962  8.253920  1.917660  9.134240
231  2 -0.7771 10.983800  5.246850  9.386450
232  2 -0.6831 12.017900  8.986420  7.900370
233  2 -0.9239 14.578200 12.655400  8.991970
234  2 -0.8130  0.113337 16.276200  9.200340
235  2 -0.8176 10.462700 19.560500  9.586350
236  2 -0.8817 12.670100  1.566080  9.575650
237  2 -0.8655 14.493500  5.189930  9.580090
238  2 -0.9003 15.755100  9.035280  8.749020
239  2 -0.8467 14.781900 19.218700  9.432860
240  2 -0.7776 16.631500  1.333910  9.109010
241  2 -0.3958 16.503800 14.302700  5.743240
242  2 -0.3088  1.993020 17.586700  5.615990
243  2 -0.2286  0.441133  6.389220  5.643380
244  2 -0.4233  1.725410 10.447000  5.995280
245  2 -0.3592  4.671520 13.953900  5.642760
246  2 -0.5182  6.051260 17.483700  6.246680
247  2 -0.4186 16.448100 20.810900  5.959700
248  2 -0.3220  2.236770  2.769520  5.867660
249  2 -0.2725  3.873930  5.945420  5.296030
250  2 -0.3155  6.635390 10.294000  5.492020
251  2 -0.3493  8.955500 13.655200  6.222480
252  2 -0.2592 10.483000 17.563100  5.852900
253  2 -0.3830  4.181420 20.948700  6.148840
254  2 -0.4361  5.842320  2.820930  5.982390
255  2 -0.3971  7.780730  5.809570  5.238140
256  2 -0.3114  9.764740  9.009130  5.956820
257  2 -0.3794 12.301200 14.206700  5.834680
258  2 -0.4619 14.402700 17.124800  6.195680
259  2 -0.3782  8.735160 21.085300  6.045490
260  2 -0.3744 10.144300  2.592640  5.829250
261  2 -0.3988 12.646500  6.083190  5.490620
262  2 -0.2469 14.756800 10.221700  5.527290
263  2 -0.2764 12.017000 21.473900  5.580060
264  2 -0.4097 14.255100  2.318410  5.825450
265  2 -0.3527  1.575470 12.273500  3.432570
266  2 -0.2775  4.422840 16.077100  3.344940
267  2 -0.3827  2.121070  5.111180  2.776380
268  2 -0.3843  4.081950  8.665370  3.101000
269  2 -0.3947  5.835060 12.237800  3.080930
270  2 -0.4110  8.863460 15.840600  3.321920
271  2 -0.2655  1.914280 19.867500  3.431740
272  2 -0.3771  4.168410  2.022100  3.471770
273  2 -0.4738  6.694420  4.693810  2.474860
274  2 -0.4812  7.907340  8.688100  2.706910
275  2 -0.4042  9.993400 11.930000  3.196310
276  2 -0.2936 12.461500 16.471300  3.095700
277  2 -0.3822  5.941230 19.343000  3.109910
278  2 -0.2974  8.116130  1.612010  3.870420
279  2 -0.3037 10.509100  4.213760  3.209820
280  2 -0.4202 11.835900  8.615400  2.998580
281  2 -0.3705 13.805000 12.100400  2.996940
282  2 -0.3496  0.787505 16.050600  2.607460
283  2 -0.4458 10.447200 19.538800  2.923690
284  2 -0.4371 12.698000  1.517240  2.895590
285  2 -0.3617 14.694300  4.789500  3.418520
286  2 -0.2885  0.397837  8.126210  3.022400
287  2 -0.4405 14.178500 20.139700  3.022650
288  2 -0.2932 16.444600  1.575520  3.285840
289  2 -0.8175  2.304020 14.994000 18.661500
290  2 -0.7538  4.172540 18.106700 18.451800
291  2 -0.8508  1.861590  7.396350 18.687300
292  2 -0.8126  4.566400 11.473100 18.197900
293  2 -0.8625  5.838670 14.848400 18.731800
294  2 -0.8200  8.188950 18.799100 18.814400
295  2 -0.8591  2.064530  0.403199 18.692400
296  2 -0.8372  4.047830  4.057190 18.758200
297  2 -0.8808  6.223850  7.385830 18.877900
298  2 -0.9243  9.147530 11.258800 18.715600
299  2 -0.8249 10.422600 14.864600 18.711100
300  2 -0.9269 12.528600 18.823900 18.518300
301  2 -0.7808  5.389960  0.011172 18.285400
302  2 -0.8562  8.111850  3.611240 19.112300
303  2 -0.9446 10.936700  7.804780 19.033000
304  2 -0.8142 12.942000 10.897100 18.756600
305  2 -0.8173 14.643800 14.845000 18.405200
306  2 -0.8989  0.155671 18.091300 18.570900
307  2 -0.7756  9.966170 21.616200 18.717700
308  2 -0.8338 11.954100  3.175810 18.789800
309  2 -0.9016 14.582100  7.815400 18.721200
310  2 -0.8568 16.589500 11.635200 18.964100
311  2 -0.8557 15.197400  0.486622 18.944500
312  2 -0.7673 16.476600  4.445280 18.703600
313  2 -0.3449  2.455360 12.661000 15.066300
314  2 -0.4502  4.271370 16.165000 15.386500
315  2 -0.3586  2.205650  5.724410 15.557300
316  2 -0.3813  4.104830  8.574230 15.640300
317  2 -0.4076  6.212560 12.182000 15.216800
318  2 -0.4120  8.658930 16.107800 15.552500
319  2 -0.4409  1.469340 19.229200 15.477400
320  2 -0.3487  4.117840  1.005060 15.104700
321  2 -0.3549  5.953730  5.349280 15.508200
322  2 -0.3727  8.812170  8.481010 15.100100
323  2 -0.2789 10.050800 11.828600 15.548400
324  2 -0.3382 12.871600 16.145200 15.562900
325  2 -0.4198  6.154970 19.238500 15.509800
326  2 -0.3103  8.085370  1.264270 15.156400
327  2 -0.4287  9.611040  4.896720 15.227800
328  2 -0.3010 12.437400  8.876950 15.290900
329  2 -0.3244 14.524000 12.324100 15.761100
330  2 -0.3093 16.579500 15.964000 15.118900
331  2 -0.4113 11.151100 19.903000 15.473400
332  2 -0.4395 12.072700  1.891530 15.172800
333  2 -0.4155 14.549600  5.087710 15.531000
334  2 -0.4485  0.091635  8.935620 15.780700
335  2 -0.4258 14.623700 20.314400 15.827300
336  2 -0.4182 16.425400  2.200640 15.219900
337  2 -0.3656  2.010150 14.783200 12.646900
338  2 -0.4493  4.466640 18.971100 12.411300
339  2 -0.3455  2.276640  7.449160 12.749200
340  2 -0.3135  4.232910 11.016700 12.797500
341  2 -0.2859  7.461550 14.827000 12.746200
342  2 -0.3655  8.556250 18.588400 13.190000
343  2 -0.4229  2.048320  0.946921 12.498500
344  2 -0.3539  3.449000  4.445510 12.748500
345  2 -0.3302  6.186750  6.933170 12.542100
346  2 -0.2919  8.559210 11.059500 12.377100
347  2 -0.2537 10.799500 14.293200 13.093600
348  2 -0.3950 12.737700 18.415600 12.410000
349  2 -0.4503  6.700550  0.365589 12.389800
350  2 -0.3399  8.241940  3.846240 12.640500
351  2 -0.2903 10.822300  7.439750 12.777600
352  2 -0.3478 12.865200 11.178600 12.500400
353  2 -0.3021 14.534100 14.961800 13.168500
354  2 -0.4169  0.738084 17.818100 12.512200
355  2 -0.4548 10.381500  0.241335 12.270900
356  2 -0.3092 12.372200  4.261110 12.541300
357  2 -0.2747 14.427200  8.091870 12.910300
358  2 -0.4145  0.225928 10.556800 12.713300
359  2 -0.3365 14.906500  0.189281 12.833800
360  2 -0.3751 16.315800  4.684760 12.897800

