Generated by pymatgen.io.lammps.data.LammpsData

320  atoms

  2  atom types

0.000000 16.864293  xlo xhi
0.000000 23.165087  ylo yhi
0.000000 24.472453  zlo zhi

Masses

1  208.9804
2   78.9600

Atoms

1    1  0.8167 16.957500 11.814200 11.280900
2    1  0.8075  1.374820 11.492300 22.820700
3    1  0.8605  0.987370 22.809300 10.542700
4    1  0.8492  0.310274  0.532921 23.650900
5    1  0.8204  4.730560 11.760300 10.499200
6    1  0.7431  5.159170 11.741400 21.827100
7    1  0.8131  5.236810 22.841100 10.153300
8    1  0.8076  4.903950  0.709036 22.538300
9    1  0.7693  8.849400 11.515400 11.163900
10   1  0.8642  9.171960 11.464800 22.719600
11   1  0.8293  8.881580 22.820100 11.539500
12   1  0.7450  8.336120 21.470200 23.713900
13   1  0.8717 13.279400 11.404500 10.841000
14   1  0.8412 13.931400 11.941100 22.669300
15   1  0.8566 13.233800 -0.146560 10.895300
16   1  0.8158 12.672800  0.531720 23.182700
17   1  0.8237  3.377760  0.358100  2.714750
18   1  0.8983  2.455350  0.272313 14.051300
19   1  0.7361  2.578740 12.408400  2.896420
20   1  0.8680  2.690380 12.228800 14.397600
21   1  0.8582  7.701280  2.157550  2.355830
22   1  0.7759  6.969920 23.215600 15.560900
23   1  0.8184  6.844960 12.152800  1.291440
24   1  0.8730  6.394320 12.064300 15.182000
25   1  0.7588 10.898300  1.341890  3.045880
26   1  0.8317 10.699000  0.332526 14.621200
27   1  0.7833 11.491300 11.635000  2.298380
28   1  0.8689 10.835600 12.278600 14.303300
29   1  0.8805 15.287400  1.814180  2.607140
30   1  0.8036 15.250600  1.273660 14.069400
31   1  0.8167 15.054800 12.136100  2.637440
32   1  0.8420 15.476200 12.873600 14.640800
33   1  0.7821  2.400790  5.810290  8.721900
34   1  0.7919  2.497750  5.985460 21.044300
35   1  0.9034  2.478370 17.794300  8.963140
36   1  0.8233  2.946440 17.324600 19.656200
37   1  0.8053  6.725700  6.111240  9.577920
38   1  0.8143  7.137260  4.581260 21.503200
39   1  0.7389  7.270800 17.739200  7.847850
40   1  0.8440  7.066980 17.111900 21.471100
41   1  0.7945 11.783200  6.018400  8.150920
42   1  0.6715 10.459100  5.914910 20.384200
43   1  0.8436 12.128700 18.002700  8.421190
44   1  0.7829 12.179700 17.747300 20.309000
45   1  0.8126 15.181300  5.810760  9.247860
46   1  0.8137 15.404100  6.585390 21.065300
47   1  0.8447 15.578700 18.269900  8.919360
48   1  0.8030 15.923300 17.758300 20.974700
49   1  0.8646  0.381347  6.155700  4.827100
50   1  0.7696  0.360985  5.853780 16.844900
51   1  0.7881  0.626437 17.491500  4.675480
52   1  0.8359  0.769677 18.021200 15.890900
53   1  0.7465  4.965580  6.768660  5.095000
54   1  0.8734  4.295950  6.454400 16.892400
55   1  0.6756  4.622100 18.239500  5.170740
56   1  0.8658  4.693500 17.542000 16.244600
57   1  0.8744  9.439920  7.264720  4.499130
58   1  0.8170  9.101010  7.049190 15.610600
59   1  0.8740  8.934020 18.140700  4.566780
60   1  0.8156  9.240830 17.884100 16.569500
61   1  0.7718 13.229200  6.211350  4.403790
62   1  0.7982 13.194200  6.657010 16.976600
63   1  0.7983 13.600700 18.323200  4.034010
64   1  0.8694 13.700600 18.687600 16.543700
65   1  0.8555  1.945900  2.410440  6.519630
66   1  0.7730 16.773800  2.133480 18.343900
67   1  0.8227  0.658531 13.619500  6.116050
68   1  0.8296 16.616700 14.085500 18.276800
69   1  0.8114  5.649730  2.901660  6.379010
70   1  0.7920  4.263130  2.369770 18.313500
71   1  0.7728  4.766020 14.101100  6.539330
72   1  0.8763  4.241560 13.553400 17.601700
73   1  0.7924 10.294300  1.689780  8.126940
74   1  0.8646  9.566950  1.661910 18.523200
75   1  0.6566  8.800200 14.100600  8.311480
76   1  0.9313  8.709960 14.123300 18.500300
77   1  0.8464 13.795200  2.101660  6.238580
78   1  0.8133 13.089800  3.382330 19.546500
79   1  0.8129 13.049500 14.464300  6.063160
80   1  0.7937 12.800300 14.064800 18.501100
81   1  0.7111  2.680150  9.584810  7.085630
82   1  0.8563  2.543330 10.049600 19.130500
83   1  0.7922  3.215750 21.413300  6.679840
84   1  0.7587  2.720460 21.246600 19.371200
85   1  0.7864  5.781450 10.772200  5.093960
86   1  0.8636  6.644100  9.997180 18.964800
87   1  0.8002  7.690700 22.094100  7.265260
88   1  0.8081  6.596080 21.191500 18.916000
89   1  0.8344 11.174700 10.890600  6.502010
90   1  0.7735 11.166600 10.088500 19.005900
91   1  0.8700 11.393700 21.183900  6.850900
92   1  0.9389 11.341000 21.360200 18.510500
93   1  0.8427 15.418500  9.821540  6.916530
94   1  0.7944 15.288100 10.351800 18.793400
95   1  0.8700 16.565600 22.000800  6.619020
96   1  0.7519 15.974900 21.783100 18.316900
97   1  0.8445  2.162100  8.517810 12.893900
98   1  0.7507  3.931270  8.425830  0.969465
99   1  0.8932  2.756160 19.665700 12.577100
100  1  0.7804  1.957970 19.059500  1.344320
101  1  0.8306  5.750690  8.162120 12.379100
102  1  0.7590  7.484760  7.219910  0.615812
103  1  0.9317  7.104210 19.514400 12.584100
104  1  0.8424  6.373530 20.836300  2.787550
105  1  0.6940 10.488200  8.024160 11.695600
106  1  0.8522 11.613000  7.919810  0.440300
107  1  0.9103 11.754500 19.587400 13.325800
108  1  0.6244 11.144600 20.652400  0.720781
109  1  0.8395 15.184500  7.895450 13.412900
110  1  0.8370 15.559200  7.894440  0.635832
111  1  0.8470 16.013600 19.735600 12.595300
112  1  0.7221 15.179500 20.204500  1.331960
113  1  0.8109  0.997063  4.664260 24.546000
114  1  0.7125  0.141939  4.288450 13.133600
115  1  0.7539  3.644320 14.871400 22.380400
116  1  0.8317  0.914755 16.063800 12.615300
117  1  0.7705  4.559400  4.816670  0.812990
118  1  0.8742  5.110680  3.530160 12.406200
119  1  0.7088  4.995290 15.584100  2.576560
120  1  0.8621  5.004610 15.743500 12.759300
121  1  0.7445 10.275400  4.207860 23.799400
122  1  0.7509  9.144140  3.791810 11.755000
123  1  0.8260  9.343360 15.776200  0.082770
124  1  0.7175  8.370900 15.849600 11.998600
125  1  0.7742 12.912600  4.485370  1.062830
126  1  0.7460 12.941700  3.734160 12.089300
127  1  0.7821 13.227000 16.954900 24.080000
128  1  0.9202 12.862000 15.930200 11.616400
129  2 -0.4186  0.872988  3.619370  9.340420
130  2 -0.3621 16.101300  3.668080 22.151300
131  2 -0.3228  0.201154 15.916600  8.904670
132  2 -0.5125  1.164330 15.494000 21.091200
133  2 -0.4393  4.631880  3.541790  9.572560
134  2 -0.5614  4.566510  3.645800 21.607200
135  2 -0.4754  4.387990 15.792900  9.131560
136  2 -0.5865  4.935740 15.206000 19.973500
137  2 -0.5957  9.429120  4.059140  8.927130
138  2 -0.4541  9.086670  2.340050 21.550900
139  2 -0.6363 10.018600 16.231200  9.297190
140  2 -0.4465  9.328390 16.098300 20.467900
141  2 -0.5839 13.321600  3.264580  9.017290
142  2 -0.6117 12.462700  3.353980 22.686300
143  2 -0.4619 13.762500 15.896300  8.662650
144  2 -0.5942 13.754700 16.165200 21.591300
145  2 -0.6343  3.332480  9.409500  4.321750
146  2 -0.4341  2.383540  8.365150 16.092700
147  2 -0.6119  2.902790 20.314300  4.158500
148  2 -0.4052  3.136890 20.859500 14.844000
149  2 -0.4863  7.574430  5.747510  3.154110
150  2 -0.4584  6.563520  8.330430 15.903000
151  2 -0.6700  7.138340 19.705900  5.205360
152  2 -0.4837  6.250070 20.021000 15.998100
153  2 -0.5259 12.058500  8.707040  2.933120
154  2 -0.4622 11.843000  8.637830 15.687800
155  2 -0.4882 11.090700 20.474600  3.912030
156  2 -0.6437 11.593800 19.838800 16.147600
157  2 -0.4602 15.374200  8.455870  4.363700
158  2 -0.5124 15.804200  8.195810 16.085100
159  2 -0.6254 16.121800 19.566100  3.696900
160  2 -0.6353 15.973000 19.702400 15.277700
161  2 -0.5324  2.187590 10.053700 10.439200
162  2 -0.4906  3.061000  9.210590 22.465300
163  2 -0.6109  2.692680 20.955400  9.811580
164  2 -0.4406  5.655290 16.286800 24.060800
165  2 -0.5586  7.303410  9.204460 10.464500
166  2 -0.5502  6.863250  9.761250 21.564500
167  2 -0.5765  7.558760 21.122200 10.202500
168  2 -0.4453  6.253850 20.984900 21.940900
169  2 -0.5819 10.695600 10.218400  9.867160
170  2 -0.4614 11.798900  9.716670 22.603000
171  2 -0.4941 11.080200 21.333900 10.698900
172  2 -0.3636  9.915740 22.191300 21.278100
173  2 -0.4782 14.968400  9.503470  9.984040
174  2 -0.4867 16.037400  9.864630 21.933600
175  2 -0.6226 15.800200 20.982900 10.088300
176  2 -0.4606 15.408000 22.096000 22.565200
177  2 -0.3812  1.111880  3.186590  2.823890
178  2 -0.6544  0.492633  2.954090 15.385100
179  2 -0.4742 -0.239083 14.205600  3.148460
180  2 -0.5951  0.680812 14.352300 15.256600
181  2 -0.4993  5.127320  3.416720  3.206200
182  2 -0.4359  4.660480  1.761680 14.847500
183  2 -0.7662  4.917670 13.030900  3.817860
184  2 -0.6248  4.661940 14.381000 15.130300
185  2 -0.3169  8.486700  2.897190  4.953680
186  2 -0.4636  8.696310  2.159100 15.911100
187  2 -0.4300  8.158010 14.500000  2.178450
188  2 -0.4176  8.578600 14.101400 15.148800
189  2 -0.6798 12.832100  3.389840  3.810960
190  2 -0.4356 13.208600  2.453680 15.119400
191  2 -0.4537 13.845800 15.194300  3.334760
192  2 -0.3534 13.016100 14.347100 14.831300
193  2 -0.6164  0.594951 10.935400  5.392650
194  2 -0.4999  0.483543 11.265200 17.144100
195  2 -0.5613  1.527230  0.305432  5.035060
196  2 -0.5078  1.050570 22.775200 16.822300
197  2 -0.4816  3.020420 12.889000  8.416600
198  2 -0.6069  4.529580 11.113400 16.806600
199  2 -0.5475  5.315490 22.702900  5.004860
200  2 -0.5088  4.301840 22.597600 17.499700
201  2 -0.4677 10.183500 13.217300  5.571840
202  2 -0.5243  8.397340 11.731600 17.315800
203  2 -0.5290 10.239200  0.129083  5.695930
204  2 -0.6557  9.525570 22.348000 17.426000
205  2 -0.6121 13.222800 11.135400  4.570490
206  2 -0.5752 13.293600 11.633500 17.102600
207  2 -0.4552 14.514000 22.938200  4.644630
208  2 -0.4129 13.191400 22.646400 17.019100
209  2 -0.5883  3.605440  0.986340  8.053190
210  2 -0.5562  2.423890  0.630946 20.819600
211  2 -0.4323  8.851030  9.990450  4.615250
212  2 -0.6735  2.682900 12.445100 19.754500
213  2 -0.6009  7.317170  1.224100  8.682730
214  2 -0.4941  6.863870  0.918329 19.806800
215  2 -0.5272  6.753820 11.970800  7.749330
216  2 -0.5967  6.538280 12.642100 19.686700
217  2 -0.5805 12.749700 23.214100  7.913580
218  2 -0.4575 11.950400  0.768470 19.684000
219  2 -0.4874 12.305600 12.993200  8.483340
220  2 -0.6194 10.659300 12.749400 19.868000
221  2 -0.4346 16.282300  0.908793  8.127890
222  2 -0.4051 14.949100  1.763990 20.553500
223  2 -0.4074 15.628100 12.976400  7.941600
224  2 -0.6171 15.459700 12.614100 20.201000
225  2 -0.5944  2.216430  5.919820  1.930870
226  2 -0.4878  3.143680  5.342240 14.348500
227  2 -0.3966  2.232640 15.905600  0.752519
228  2 -0.6764  3.155880 17.343800 13.899400
229  2 -0.5813  7.031190  3.804090 24.532900
230  2 -0.3446  5.891850  4.625200 16.036000
231  2 -0.4937  8.294840 18.986200  1.570960
232  2 -0.6021  6.791400 17.259400 14.058000
233  2 -0.6836 10.958400  5.782270  2.059000
234  2 -0.5263 10.878400  4.859500 13.576300
235  2 -0.5390 11.308700 17.271300  1.898230
236  2 -0.4718 11.323100 16.803200 13.468000
237  2 -0.5776 15.215000  5.560190  2.204560
238  2 -0.6192 14.589600  5.456560 14.085500
239  2 -0.5041 15.717500 17.638600  0.263947
240  2 -0.5016 15.498900 16.634700 14.270300
241  2 -0.5673  0.070392  7.207030 11.259600
242  2 -0.5578  0.648186  7.073820 23.100600
243  2 -0.8051  0.641103 18.121800 11.378500
244  2 -0.4163  1.537560 19.942500 22.079800
245  2 -0.6220  4.081720  6.784620 11.006800
246  2 -0.5252  5.344020  6.837210 23.099400
247  2 -0.5035  4.906540 18.498300 11.457600
248  2 -0.4969  4.586920 18.749400  1.495600
249  2 -0.6800  7.186670  5.818610 12.261700
250  2 -0.6667  9.185390  6.706620 23.060100
251  2 -0.4411  9.166710 18.679400 11.441500
252  2 -0.4915  9.736430 18.119400 22.867800
253  2 -0.6242 12.908400  6.941400 10.798100
254  2 -0.5937 13.352200  6.720400 23.402600
255  2 -0.6456 13.493000 18.354000 10.990200
256  2 -0.5708 13.052900 19.720300 23.044500
257  2 -0.4894  1.205650 10.329400  0.771181
258  2 -0.6552  0.612475 10.518400 13.536800
259  2 -0.4839  0.086005 22.915400  1.843220
260  2 -0.6744  0.412522 22.023300 13.157600
261  2 -0.6436  6.120880  8.918920  2.418150
262  2 -0.6130  4.305890 10.357500 13.373800
263  2 -0.3879  3.029130 21.747700  0.183304
264  2 -0.5098  5.058600 21.408000 12.744500
265  2 -0.5936  9.278680 10.755500  0.839749
266  2 -0.6248  8.708220 10.483500 13.568300
267  2 -0.4672  8.033120 22.744500  3.422710
268  2 -0.6418  9.759930 21.090400 13.752300
269  2 -0.5584 13.650300 10.412400  0.754093
270  2 -0.5285 13.286300 10.614000 13.225600
271  2 -0.6233 13.095500 23.002600  1.406560
272  2 -0.5453 13.165500 22.193900 13.630900
273  2 -0.5109  3.033410  1.559380 11.596500
274  2 -0.5310  3.123020  2.225720 24.683900
275  2 -0.5675  2.865410 13.486800 11.825400
276  2 -0.6334  4.116410 12.600200 24.497100
277  2 -0.6067  7.161960  1.721830 12.632300
278  2 -0.5101  6.393030 -0.069133  0.907786
279  2 -0.7000  6.563010 13.513700 12.320600
280  2 -0.5930  7.445800 13.337000 23.402400
281  2 -0.7369 10.929700  1.294000 11.494300
282  2 -0.6150  9.813080  1.540350  0.302776
283  2 -0.5864 11.199200 13.477500 12.059700
284  2 -0.5148 11.108000 13.281000 23.612100
285  2 -0.5877 15.467600  1.868090 11.516400
286  2 -0.5570 15.234000  2.873260  0.426527
287  2 -0.5880 15.002400 13.687800 12.096900
288  2 -0.3789 15.695100 13.225400 24.242100
289  2 -0.6752  2.747270  5.106050  5.783340
290  2 -0.6533  2.233190  3.974940 18.467800
291  2 -0.6841  2.734510 15.778400  5.878710
292  2 -0.6375  2.642490 16.052500 17.349000
293  2 -0.4841  6.628090  5.260330  6.803330
294  2 -0.4478  8.007690  4.744880 18.874100
295  2 -0.6441  6.727570 15.879700  5.446970
296  2 -0.4665  7.342450 16.310400 17.948400
297  2 -0.4713 10.657700  5.148630  5.860940
298  2 -0.5085 11.341100  4.347180 17.567000
299  2 -0.5441 11.437900 17.473500  5.777830
300  2 -0.5316 11.128100 15.976000 17.356800
301  2 -0.5333 15.953900  3.860940  5.894270
302  2 -0.6846 15.129700  4.707850 18.548700
303  2 -0.4685 15.925100 15.938200  6.089060
304  2 -0.6043 14.964500 16.036900 18.421200
305  2 -0.5820  0.057122  6.976760  7.514270
306  2 -0.5707  1.027900  7.486730 19.448800
307  2 -0.6151  1.066870 19.387900  6.967520
308  2 -0.6444  0.808591 19.102300 18.527000
309  2 -0.5153  5.196180  8.707550  7.747730
310  2 -0.5221  4.536610  7.941780 19.200100
311  2 -0.5723  4.785660 19.078500  8.112740
312  2 -0.6237  4.868270 19.013400 19.455700
313  2 -0.3558  9.553040  8.310040  7.233020
314  2 -0.5446  9.438330  8.071940 18.335200
315  2 -0.5823  9.485070 19.628300  7.534610
316  2 -0.4443  9.019480 19.341700 19.585000
317  2 -0.5826 13.545900  7.765670  7.263390
318  2 -0.6337 13.082700  7.998510 19.835800
319  2 -0.5603 14.089100 19.545000  6.613580
320  2 -0.6688 13.713800 19.587200 18.883700

