Generated by pymatgen.io.lammps.data.LammpsData

320  atoms

  2  atom types

0.000000 24.637781  xlo xhi
0.000000 17.058433  ylo yhi
0.000000 27.370788  zlo zhi

Masses

1  208.9804
2   78.9600

Atoms

1    1  0.7442 21.607300  1.453600  0.915110
2    1  0.7984 -1.418180  1.173230 14.154700
3    1  0.7565 21.638300  9.921150  0.751264
4    1  0.7643 -1.654340  9.942040 14.886400
5    1  0.7368  9.395270 18.456300  0.886234
6    1  0.7478 10.447300 18.451800 14.203700
7    1  0.6964  9.423260 10.200300  0.928323
8    1  0.7546 10.904500  9.783320 14.622700
9    1  0.7073  4.621250  5.440710  9.990920
10   1  0.7295  3.495660  5.780770 24.323100
11   1  0.7386  4.286820 13.929400 10.529800
12   1  0.7307  3.227140 14.216100 24.289300
13   1  0.7694 16.602800  5.722110 10.547900
14   1  0.7698 15.568900  5.603850 24.102200
15   1  0.7844 16.849100 13.995300 10.032900
16   1  0.7745 16.127100 13.934100 24.224600
17   1  0.7668  4.302860  5.715740  5.958980
18   1  0.7040  3.069460  5.454570 20.091600
19   1  0.7192  4.225340 13.979900  6.204800
20   1  0.7273  2.817290 14.207000 19.882000
21   1  0.7291 16.768000  5.458130  6.211030
22   1  0.7329 15.834900  5.366010 19.760300
23   1  0.7835 16.766200 13.870600  6.229500
24   1  0.7608 15.461700 14.230600 19.977900
25   1  0.7013 -1.613620 18.302400 10.076600
26   1  0.7777 21.608700  1.440710 23.929300
27   1  0.7233 -1.861380  9.785670 10.378500
28   1  0.7689 21.812200 10.123000 23.935500
29   1  0.7840 10.210500 18.616400 10.286700
30   1  0.8123  9.511790 18.173600 24.213200
31   1  0.8307 10.124900  9.613010 10.512300
32   1  0.8283  9.423950 10.118900 23.812200
33   1  0.7398 21.498500  5.744410  0.382992
34   1  0.7980 -1.559610  5.484730 14.536100
35   1  0.7353 21.976500 14.214700  0.813121
36   1  0.7423 -1.661410 14.063200 14.411300
37   1  0.6774  9.238450  5.910800  0.512666
38   1  0.7567 10.773000  5.379470 14.376800
39   1  0.7202  9.357930 14.042100  0.456561
40   1  0.7022 10.393900 14.257700 14.663000
41   1  0.7293 -1.640560  5.668540 10.294800
42   1  0.7498 21.760000  5.569720 23.487600
43   1  0.7406 -1.768330 13.733100 10.527400
44   1  0.7741 21.894900 13.909700 23.660900
45   1  0.8347 10.517800  5.436290 10.515700
46   1  0.7596  9.589570  5.487220 24.155300
47   1  0.7558 10.640100 13.854800 10.438800
48   1  0.7496  9.438750 13.909000 24.124300
49   1  0.7274  4.711530  1.064710  6.026670
50   1  0.7387  2.989190  1.674150 20.218800
51   1  0.6998  4.239660  9.879090  6.143070
52   1  0.7413  3.281420  9.870060 19.773700
53   1  0.7487 16.956000  1.372920  6.068700
54   1  0.6894 15.507000 18.341300 19.974500
55   1  0.7537 16.920900  9.684880  6.476040
56   1  0.7319 15.458000  9.940490 19.800700
57   1  0.7624  4.581910 18.380700 10.058500
58   1  0.7315  3.419930  1.324190 24.517700
59   1  0.7583  4.213590  9.657500 10.407800
60   1  0.7653  3.429070  9.771280 23.579800
61   1  0.7401 16.891900 18.474600 10.284800
62   1  0.7581 15.617500 18.108700 24.049800
63   1  0.7951 16.599600  9.908690 10.368300
64   1  0.7739 15.700200  9.821360 23.929200
65   1  0.8653  0.088894  7.930160 25.849900
66   1  0.8481  1.132210  7.648270 12.244700
67   1  0.8153  0.007810 16.704100 26.266000
68   1  0.8629  1.266500 16.092300 12.129600
69   1  0.8010 12.998300  8.139460 26.267800
70   1  0.8233 13.035600  7.859250 12.141800
71   1  0.7977 12.508800 16.239200 26.508300
72   1  0.8572 13.639300 16.134000 12.002800
73   1  0.8067  6.782570  7.995190 26.023600
74   1  0.7815  7.515320  7.420120 12.748100
75   1  0.7821  6.572160 16.160200 26.062600
76   1  0.7202  7.220880 16.325900 12.515700
77   1  0.8062 18.937500  7.792420 25.572000
78   1  0.7324 20.188000  7.563010 12.780800
79   1  0.7840 19.260500 16.144200 26.136200
80   1  0.7380 20.195300 16.187200 12.324300
81   1  0.8507 -0.170805  3.707990 26.356200
82   1  0.8007  1.330880  3.347480 12.013000
83   1  0.8140  0.284949 12.214600 26.253000
84   1  0.8375  1.171320 12.019800 12.280100
85   1  0.7811 12.582500  3.597060 26.336900
86   1  0.8354 13.316300  3.380290 12.221500
87   1  0.8084 12.865600 12.191200 26.310700
88   1  0.7996 13.293400 11.887600 12.230800
89   1  0.7745  6.759180  3.393830 25.935700
90   1  0.7996  7.547160  3.212800 12.323100
91   1  0.7182  6.382730 12.369700 25.527900
92   1  0.7644  7.466990 11.983300 12.839100
93   1  0.8176 18.935500  3.640530 25.794200
94   1  0.7700 20.115000  3.303030 12.377600
95   1  0.8075 19.100700 11.814400 26.001600
96   1  0.7673 19.637500 11.844300 12.942800
97   1  0.8356  1.368390  7.823610  8.051680
98   1  0.8064  0.568509  7.867700 22.087900
99   1  0.7877  1.425660 16.183700  7.854330
100  1  0.7263  0.593157 16.219600 22.148300
101  1  0.7709 13.570200  7.490790  7.988930
102  1  0.7597 12.966600  7.593100 21.842300
103  1  0.8010 13.703600 16.127000  7.770040
104  1  0.7920 12.735600 16.309500 22.366600
105  1  0.7889  7.266310  7.500860  8.431600
106  1  0.7791  6.411980  7.848810 21.800500
107  1  0.7960  7.325960 15.957600  8.633470
108  1  0.8529  6.423110 16.385300 21.328400
109  1  0.8179 19.537200  7.627500  8.498670
110  1  0.7856 18.627000  7.469750 21.810800
111  1  0.7991 19.794500 16.139100  8.251160
112  1  0.7986 18.595700 16.404700 21.818000
113  1  0.7935  1.336690  3.360250  8.196860
114  1  0.7922  0.580474  3.602260 22.435000
115  1  0.7931  1.141780 11.900300  8.108350
116  1  0.8296  0.274201 11.937500 21.960600
117  1  0.7868 13.605300  3.464400  8.121960
118  1  0.8209 12.720300  3.088830 22.293400
119  1  0.7918 13.458800 11.974000  8.126230
120  1  0.7794 12.783800 12.174200 22.037000
121  1  0.8025  7.183540  3.279340  8.161640
122  1  0.7816  6.628560  3.450240 21.663400
123  1  0.7868  7.035650 11.942600  8.346090
124  1  0.7215  5.939130 12.015700 21.876900
125  1  0.8225 19.770400  3.369710  8.328480
126  1  0.7562 18.486500  3.483430 21.880800
127  1  0.8386 19.854000 11.913800  8.487470
128  1  0.8433 18.867700 11.992400 21.884500
129  2 -0.8065  7.678770  5.392770 10.461000
130  2 -0.7571  6.660620  5.565340 23.998400
131  2 -0.8038  7.562380 14.060200 10.741800
132  2 -0.8070  6.126240 14.347800 23.518000
133  2 -0.7758 19.700800  5.523330 10.360300
134  2 -0.8787 18.881800  5.513700 23.908900
135  2 -0.8051 19.806200 13.912600 10.426100
136  2 -0.7921 18.964000 14.141700 23.693600
137  2 -0.7681  1.346580  5.684010 10.009300
138  2 -0.8005  0.158685  5.828470 24.109100
139  2 -0.7755  1.134830 14.065400 10.111100
140  2 -0.8102  0.324707 14.256200 24.366500
141  2 -0.8002 13.338100  5.543400 10.385400
142  2 -0.7629 12.641300  5.573650 24.169400
143  2 -0.8023 13.679100 14.221600  9.889680
144  2 -0.7734 12.659100 14.185100 24.520800
145  2 -0.1280 20.288000  3.598240  3.688070
146  2 -0.0699 -0.496077  3.795430 17.536800
147  2 -0.0633 20.273400 11.699000  3.846600
148  2 -0.1339 -0.344499 12.209200 17.388200
149  2 -0.1037  7.897120  3.586360  3.606510
150  2 -0.1296 11.968600  3.485030 17.064500
151  2 -0.1125  8.030000 12.352700  3.700690
152  2 -0.1261 11.944100 11.844000 17.434900
153  2 -0.0564 20.260100  7.510140  4.005130
154  2 -0.1199 -0.407520  7.536810 17.381600
155  2 -0.1039 20.378500 16.066000  3.888410
156  2 -0.1036 -0.275594 16.505700 17.262500
157  2 -0.1277  8.010070  7.202200  3.559130
158  2 -0.1564 11.952000  7.620360 17.177500
159  2 -0.0700  8.006650 15.893100  3.797750
160  2 -0.0913 11.793000 16.345700 17.495400
161  2 -0.8852  7.349180 18.309000 10.149500
162  2 -0.7413  6.690080 18.379800 23.554600
163  2 -0.7559  7.391010  9.702940 10.495400
164  2 -0.8226  6.540720  9.768280 23.846300
165  2 -0.8358 19.959500  1.366690 10.202600
166  2 -0.7997 18.560400 18.473100 23.842000
167  2 -0.7845 19.716700  9.848310 10.723900
168  2 -0.8273 18.683700 10.011800 23.819600
169  2 -0.8117  1.338560 18.131600 10.065600
170  2 -0.7971  0.392809  1.699900 24.517300
171  2 -0.7940  1.117040  9.543540 10.326900
172  2 -0.8030  0.111138  9.941190 24.019400
173  2 -0.7312 13.435000 18.287900 10.163800
174  2 -0.8173 12.582000 18.361100 24.457500
175  2 -0.7669 13.323900  9.847840 10.236500
176  2 -0.7527 12.786100 10.190000 24.294300
177  2 -0.0881  5.786410  3.409760  3.004540
178  2 -0.1010  1.693670  3.614100 17.089300
179  2 -0.0802  5.952550 12.184600  3.056840
180  2 -0.0948  1.677410 12.274300 16.843200
181  2 -0.1121 18.191600  3.635120  3.142910
182  2 -0.0768 14.172500  3.500510 16.565100
183  2 -0.0784 18.075900 11.630900  3.336070
184  2 -0.1038 14.136000 12.057600 16.880700
185  2 -0.1058  5.917130  7.528310  2.976330
186  2 -0.1027  1.864700  7.426600 16.842400
187  2 -0.0944  5.902360 16.318600  3.156010
188  2 -0.0734  1.861780 16.396800 16.781100
189  2 -0.1072 18.175300  7.653660  3.389690
190  2 -0.0904 14.059500  7.655530 16.658600
191  2 -0.1074 18.191300 16.084600  3.369030
192  2 -0.0852 14.074000 16.390500 16.865000
193  2 -0.4262  1.626460  5.553050  6.070980
194  2 -0.4249  0.131582  5.599330 20.349900
195  2 -0.4635  1.486260 13.979100  5.990200
196  2 -0.4204 -0.000564 14.273300 20.056700
197  2 -0.4975 13.914400  5.040230  6.079050
198  2 -0.3925 12.808900  5.278780 20.046300
199  2 -0.4418 14.073100 13.866800  5.778730
200  2 -0.4246 12.683600 14.363900 20.034000
201  2 -0.4788  7.132560  5.372660  6.463900
202  2 -0.4288  6.029890  5.484810 19.630100
203  2 -0.4493  7.057010 13.844700  6.364710
204  2 -0.3621  5.766290 13.923800 19.402200
205  2 -0.4612 19.411600  5.563770  6.429000
206  2 -0.4691 18.609700  5.429150 19.773200
207  2 -0.4478 19.373700 13.782200  6.364870
208  2 -0.4016 18.235300 14.188500 19.717000
209  2 -0.8835 -1.594610  7.643720 12.802700
210  2 -0.8627 21.973700  7.813590 25.856700
211  2 -0.9079 -1.526630 16.078200 12.404000
212  2 -0.8877 22.008200 16.601600 25.964400
213  2 -0.9177 10.313700  7.519740 12.466000
214  2 -0.8069  9.614310  8.323480 25.758400
215  2 -0.8252 10.759100 16.254300 12.430000
216  2 -0.9124  9.336980 16.270500 26.152300
217  2 -0.8849 -1.644650  3.467270 12.411300
218  2 -0.8959 21.829000  3.479210 26.027300
219  2 -0.9111 -1.471020 11.888000 12.709400
220  2 -0.9146 21.862600 12.010800 26.023400
221  2 -0.9709 10.492600  3.403750 12.336400
222  2 -0.9031  9.609720  3.227170 25.966300
223  2 -0.8753 10.357200 11.832400 12.444500
224  2 -0.9108  9.697120 12.124300 25.881200
225  2 -0.4411 -0.109031  1.806610  0.943633
226  2 -0.4102  1.311770  1.411680 14.032400
227  2 -0.3980 -0.160883  9.845550  0.951270
228  2 -0.3451  1.198750 10.042700 14.655100
229  2 -0.3469 12.376900  1.293340  1.418880
230  2 -0.4306 13.324100 18.327600 14.050500
231  2 -0.4022 12.511200  9.788240  1.134950
232  2 -0.4686 13.456700  9.953950 14.188900
233  2 -0.4303  6.473950 18.243500  0.552856
234  2 -0.4651  7.612690  1.306720 14.543100
235  2 -0.3672  6.374340 10.191300  0.623155
236  2 -0.4004  7.881660  9.631750 14.866500
237  2 -0.4327 18.949100 18.162300  0.653863
238  2 -0.4973 20.663900  1.002690 14.355000
239  2 -0.4578 18.985700  9.637760  0.449454
240  2 -0.4420 20.056000  9.586530 14.933600
241  2 -0.9034  4.083170  7.820670  8.099320
242  2 -0.9445  3.480130  7.790620 21.946800
243  2 -0.8928  4.367250 16.169900  8.297990
244  2 -0.8409  3.446790 16.391600 22.043900
245  2 -0.9017 16.634000  7.756780  8.626230
246  2 -0.8841 15.892300  7.637350 21.952700
247  2 -0.8469 16.756700 16.258100  8.003130
248  2 -0.9117 15.610600 16.040600 22.074000
249  2 -0.8833  4.130050  3.365350  7.973880
250  2 -0.9019  3.302370  3.439380 22.196300
251  2 -0.8841  4.074270 11.919100  8.549660
252  2 -0.9121  3.068940 11.922900 21.853900
253  2 -0.8608 16.740000  3.413250  8.284820
254  2 -0.8918 15.575500  3.710510 22.043400
255  2 -0.8890 16.751400 11.799900  8.302270
256  2 -0.8578 15.749300 11.843900 21.872700
257  2 -0.4591  6.451650  5.637710  0.306517
258  2 -0.3800  7.535250  5.245990 14.585600
259  2 -0.4294  6.175770 14.213900  0.425182
260  2 -0.3700  7.396370 13.834400 15.132000
261  2 -0.4293 18.586700  5.649940  0.204740
262  2 -0.4408 20.332800  5.208120 14.675000
263  2 -0.4676 19.400900 13.731100  0.820214
264  2 -0.3653 19.744500 13.770700 14.919500
265  2 -0.4879 -0.197355  6.015940  0.366635
266  2 -0.3981  1.290030  5.400570 14.117300
267  2 -0.4672  0.036738 14.372200  0.835536
268  2 -0.4585  1.171660 14.262700 14.050700
269  2 -0.4806 12.048700  5.898120  0.787904
270  2 -0.4354 13.462300  5.603630 14.059700
271  2 -0.4680 12.156600 14.411800  1.084890
272  2 -0.4041 13.416200 13.986600 14.104300
273  2 -0.4845 -1.500790  3.410530  8.108790
274  2 -0.4542 -2.739370  3.221150 21.867300
275  2 -0.4917 -2.016270 11.985100  8.245800
276  2 -0.5379 21.894800 11.998800 21.888300
277  2 -0.4950 10.301600  3.441970  8.446140
278  2 -0.4643  9.835410  3.288610 22.112800
279  2 -0.4715 10.397900 11.916800  8.561480
280  2 -0.4299  9.487360 12.037400 21.814600
281  2 -0.5045 -2.082420  7.698740  8.507680
282  2 -0.4030 21.878900  8.023230 21.683500
283  2 -0.4042 -1.781170 15.683000  8.033870
284  2 -0.4355 21.546000 16.054900 21.949600
285  2 -0.5049 10.398800  7.804810  8.723430
286  2 -0.4169  9.368880  7.680040 22.026400
287  2 -0.3941 10.207100 16.113900  8.153780
288  2 -0.4555  9.503350 15.998100 22.114300
289  2 -0.3834  7.483150 18.142300  6.160530
290  2 -0.4292  5.846880  1.106300 19.465800
291  2 -0.4102  7.286470  9.731670  6.362600
292  2 -0.3607  6.139880 10.002700 19.322700
293  2 -0.4387 19.865900  1.155320  6.376840
294  2 -0.4383 18.155100 18.382200 19.502100
295  2 -0.4311 19.733500  9.712500  6.510640
296  2 -0.3989 18.205400  9.978010 19.635800
297  2 -0.3394  1.663770 18.048700  5.429040
298  2 -0.4196  0.332308  1.401940 20.092300
299  2 -0.4479  1.364780  9.796530  5.930760
300  2 -0.4797  0.496802  9.923180 20.155200
301  2 -0.4186 13.838100  1.077560  6.006770
302  2 -0.4644 12.624100 18.162000 20.336600
303  2 -0.4647 13.990600  9.745110  6.205990
304  2 -0.4276 12.342900  9.951740 20.299200
305  2 -0.5049  4.614610  3.370100 11.971000
306  2 -0.3610  3.565220  3.727740 26.519300
307  2 -0.5325  4.049360 11.662000 12.256000
308  2 -0.4919  3.406590 11.889100 25.787900
309  2 -0.4619 16.569500  3.611450 12.311100
310  2 -0.3980 15.686700  2.965160 26.244600
311  2 -0.4501 16.621400 12.153500 12.210900
312  2 -0.5043 16.067400 11.941700 26.058400
313  2 -0.4037  3.959920  7.304950 12.574600
314  2 -0.4123  3.676450  8.109150 26.017300
315  2 -0.4423  4.255470 16.398700 12.556200
316  2 -0.3839  3.477990 16.556000 26.669100
317  2 -0.3576 16.015000  8.102450 12.640600
318  2 -0.5136 15.925400  7.723590 25.953800
319  2 -0.4700 16.758200 15.882900 12.018700
320  2 -0.4655 16.047600 16.087400 25.955200

