Generated by pymatgen.io.lammps.data.LammpsData

320  atoms

  2  atom types

0.000000 16.864293  xlo xhi
0.000000 23.165087  ylo yhi
0.000000 24.472453  zlo zhi

Masses

1  208.9804
2   78.9600

Atoms

1    1  0.8063  1.138310 11.826800 10.880900
2    1  0.8371  1.102920 11.660000 22.759900
3    1  0.8221  1.323700 22.998100 10.823600
4    1  0.8791  1.306170 23.350100 23.133300
5    1  0.8113  4.906310 10.787900 10.493000
6    1  0.8134  5.030850 11.460200 22.846900
7    1  0.8723  5.200160 23.275000 10.482200
8    1  0.8189  5.345180 23.157100 23.018700
9    1  0.8073  9.438450 11.499100 10.737500
10   1  0.8870  9.720180 11.541300 23.089600
11   1  0.8430  9.487590 23.260100 10.464200
12   1  0.8731  9.576940 22.922900 22.581000
13   1  0.8002 13.764600 11.324700 10.418300
14   1  0.8310 13.709100 11.329900 22.443700
15   1  0.8286 13.697300 -0.816896 10.777600
16   1  0.8847 13.840700 22.857000 23.077000
17   1  0.8595  3.467030  0.646109  1.752530
18   1  0.8869  3.324950  0.767998 14.210400
19   1  0.8589  3.508210 12.123100  2.268860
20   1  0.7824  3.159120 12.419100 14.289200
21   1  0.8513  7.559400  0.413174  1.913540
22   1  0.8135  7.587990  0.809393 13.610600
23   1  0.8144  7.647120 12.316000  2.159900
24   1  0.8713  7.361090 11.995800 14.168500
25   1  0.8144 11.600600  0.567068  2.248800
26   1  0.8825 11.408800  0.555720 13.876200
27   1  0.8698 11.994200 12.292500  2.312960
28   1  0.8110 11.566800 12.576200 14.245200
29   1  0.7577 15.836100  0.935489  2.093980
30   1  0.8445 16.018300  0.336454 14.340700
31   1  0.8582 16.259200 12.050800  1.924090
32   1  0.8199 15.905300 11.978000 14.444200
33   1  0.7943  3.171460  5.550700  8.148300
34   1  0.8233  3.011480  5.743530 20.374700
35   1  0.8807  3.340010 17.350400  7.923120
36   1  0.7875  3.292100 17.016000 20.426300
37   1  0.8800  7.518700  5.658750  8.520810
38   1  0.7138  7.844570  5.609680 20.340700
39   1  0.8686  7.610450 17.299400  7.963500
40   1  0.8094  7.345100 17.218900 20.024300
41   1  0.8492 11.505000  5.506070  8.376670
42   1  0.7891 11.506700  5.500900 20.643700
43   1  0.8467 11.813500 17.664100  7.974770
44   1  0.8213 11.606300 17.447300 20.156100
45   1  0.8099 15.787400  5.504250  7.917240
46   1  0.7812 15.816600  5.939750 20.693400
47   1  0.7955 15.847000 17.503900  7.719540
48   1  0.7680 15.377900 17.542700 20.286400
49   1  0.7770  1.592680  6.706670  4.521980
50   1  0.8219  0.939484  6.466820 17.322500
51   1  0.8129  1.254830 18.350700  4.394140
52   1  0.8220  1.393780 18.170000 16.648100
53   1  0.8440  5.435890  6.728330  4.237070
54   1  0.8088  5.070820  6.387040 17.015200
55   1  0.8797  5.746780 17.811700  4.061140
56   1  0.8125  5.481420 18.077700 16.471700
57   1  0.8662  9.713580  6.290000  4.669980
58   1  0.8055  9.587180  6.399130 16.985700
59   1  0.8868  9.701150 18.032100  4.483610
60   1  0.7976  9.631060 18.051300 17.028700
61   1  0.8393 13.781300  6.287180  4.714940
62   1  0.8006 13.409000  6.350050 17.137800
63   1  0.8718 13.650100 18.359100  4.118260
64   1  0.8367 14.050100 18.103900 16.888500
65   1  0.8505  1.136900  2.407300  5.762370
66   1  0.8574  0.968338  2.278740 18.787000
67   1  0.7773  1.374610 13.880100  6.015760
68   1  0.7908  1.094620 13.879000 18.188200
69   1  0.8361  5.346660  2.237820  5.473900
70   1  0.8491  5.379010  2.178010 18.468600
71   1  0.7988  5.157170 13.825000  6.691450
72   1  0.8081  5.171290 13.761600 18.113600
73   1  0.8535  9.145570  2.117360  5.628980
74   1  0.7951  9.237650  2.239660 18.282800
75   1  0.8264  9.423200 13.699500  6.132290
76   1  0.7972  9.372550 13.934100 18.597000
77   1  0.8611 13.861800  1.797660  5.582110
78   1  0.8209 13.960800  1.919960 18.452600
79   1  0.8505 14.070600 13.850800  6.100340
80   1  0.7899 13.146000 13.453300 18.357400
81   1  0.7871  2.879230  9.620260  7.030430
82   1  0.8174  3.449730 10.004000 18.758000
83   1  0.8941  3.162710 21.708700  5.943070
84   1  0.8764  3.284650 21.446700 18.576000
85   1  0.8587  7.730680 10.067100  6.825170
86   1  0.7720  7.342500  9.345900 19.162000
87   1  0.8418  7.287380 21.685000  6.162570
88   1  0.8026  7.076160 21.328000 18.645000
89   1  0.8689 11.816300  9.600180  6.638590
90   1  0.8240 11.513300 10.045700 18.724100
91   1  0.8992 11.439200 21.485500  6.562370
92   1  0.8760 11.924800 21.143500 18.600500
93   1  0.7973 15.885700  9.820910  7.034750
94   1  0.7865 15.570400  9.670680 18.932500
95   1  0.7949 15.845000 21.729600  5.936600
96   1  0.8074 15.780600 21.773900 18.659500
97   1  0.8628  3.391220  7.631660 12.876900
98   1  0.8455  3.030330  8.267570  0.276324
99   1  0.8116  3.009240 19.628900 12.310600
100  1  0.8216  3.502670 19.924000  0.256203
101  1  0.8475  7.714020  7.963750 11.999800
102  1  0.8450  7.883150  7.870020  0.447598
103  1  0.8294  7.402870 20.048400 12.299800
104  1  0.8479  7.242920 19.719600  0.142460
105  1  0.8552 11.552200  7.764350 12.173400
106  1  0.8576 11.575900  7.992620  0.524450
107  1  0.8198 11.362800 19.655600 12.079200
108  1  0.8263 11.299300 19.660200  0.844140
109  1  0.8373 15.927000  7.755580 13.039800
110  1  0.8524 15.786800  8.112640  0.453747
111  1  0.8009 15.978700 19.737400 12.583700
112  1  0.8416 16.203400 19.348000 24.864000
113  1  0.8769  1.308290  3.823860  0.019882
114  1  0.8044  0.842676  4.109710 12.664600
115  1  0.7955  1.176660 15.704100 24.115500
116  1  0.8344  1.075080 15.759500 11.938800
117  1  0.8727  5.421340  4.374810 -0.101216
118  1  0.8043  4.934790  3.945100 12.033000
119  1  0.8708  5.282920 15.571500  0.290592
120  1  0.8544  4.980420 15.982900 12.182200
121  1  0.8266  9.797030  4.030630  0.068306
122  1  0.7640  9.488870  3.887440 11.817700
123  1  0.7766  9.684720 15.462600  0.139477
124  1  0.8131  9.295990 15.965600 11.814100
125  1  0.8024 13.695400  4.212120  0.114570
126  1  0.8354 13.680900  4.073090 12.100000
127  1  0.8162 14.101200 15.714200 24.424800
128  1  0.8130 13.649300 15.992700 11.607800
129  2 -0.5150  0.975725  3.491050  8.399460
130  2 -0.5402  1.137880  3.973710 21.270200
131  2 -0.5784  1.390480 15.789900  8.609740
132  2 -0.5379  0.578768 15.604100 20.840900
133  2 -0.5064  5.518790  3.953470  8.511670
134  2 -0.4723  5.334690  3.422740 21.245600
135  2 -0.5630  5.691330 15.588800  8.789630
136  2 -0.4946  5.466800 15.276300 20.985600
137  2 -0.5715  9.459340  3.905660  8.661570
138  2 -0.5558  9.668210  3.617320 21.259100
139  2 -0.5605  9.788400 15.630600  8.416860
140  2 -0.5145  9.555780 15.598300 20.876200
141  2 -0.4273 13.695900  3.511100  8.291590
142  2 -0.5240 13.756100  3.916130 21.036200
143  2 -0.5591 13.887900 15.529400  8.798470
144  2 -0.5081 13.365500 15.382200 21.003300
145  2 -0.5585  3.441540  8.678130  4.028390
146  2 -0.4944  3.191260  8.354240 16.124800
147  2 -0.5106  3.531290 19.884400  3.849130
148  2 -0.5306  3.172290 19.978900 15.974600
149  2 -0.4910  7.788090  8.211270  3.977260
150  2 -0.4286  7.165160  8.176770 16.177100
151  2 -0.5469  7.732360 19.881700  3.681110
152  2 -0.5563  7.489960 19.991800 16.284300
153  2 -0.5207 11.630100  8.179360  4.150950
154  2 -0.4552 11.576900  8.018720 15.947400
155  2 -0.5980 11.477900 19.805200  3.874130
156  2 -0.4695 11.855400 19.755500 16.004500
157  2 -0.4755 15.681900  8.400170  4.157620
158  2 -0.5413 15.683100  8.128960 16.397600
159  2 -0.5470 15.638200 20.288900  3.375700
160  2 -0.5246 15.930100 20.075400 16.167600
161  2 -0.5205  2.857560  9.215150 10.189700
162  2 -0.5183  2.986560  9.626510 22.014600
163  2 -0.4584  3.390380 21.417400  9.360680
164  2 -0.5005  3.202450 21.303200 22.124000
165  2 -0.5654  7.637120  9.356360  9.699290
166  2 -0.5185  7.952870  9.688100 22.647200
167  2 -0.5268  7.432240 21.449300  9.995150
168  2 -0.5079  7.617570 20.963500 22.110800
169  2 -0.5689 11.328000  9.599030 10.006300
170  2 -0.5111 11.574900  9.623260 22.401000
171  2 -0.5422 11.222000 21.146700  9.598060
172  2 -0.4804 12.056000 21.278000 22.403900
173  2 -0.5047 15.859500  9.633280 10.282100
174  2 -0.5524 16.198700  9.685190 22.534200
175  2 -0.5122 16.141300 21.027600 10.015200
176  2 -0.4721 16.064000 21.173100 22.470900
177  2 -0.5245  1.617910  2.569040  2.772980
178  2 -0.5139  1.169030  2.487590 14.922000
179  2 -0.4338  1.694770 14.405500  2.747130
180  2 -0.5220  0.826996 14.051200 14.650600
181  2 -0.5271  5.403680  2.585890  2.198870
182  2 -0.5048  5.215870  2.453310 14.647800
183  2 -0.5452  5.589460 13.988900  2.502790
184  2 -0.4796  5.296620 14.247300 14.680000
185  2 -0.5940  9.265970  2.516590  2.483560
186  2 -0.5218  9.779460  2.325930 14.792800
187  2 -0.5655  9.993760 14.072200  2.892340
188  2 -0.4987  9.129850 13.789600 14.693700
189  2 -0.6126 13.427100  2.482860  2.846160
190  2 -0.4609 13.613700  2.079280 14.438400
191  2 -0.4444 14.163400 14.080300  2.893280
192  2 -0.4090 13.784100 14.249500 14.939000
193  2 -0.5005  1.051910 11.373500  4.799470
194  2 -0.5079  1.142080 11.067100 16.957200
195  2 -0.6022  1.313280 22.818700  4.469860
196  2 -0.5099  1.032100 22.869200 17.083200
197  2 -0.4706  5.601100 11.398900  4.925250
198  2 -0.5249  5.443280 11.272600 16.914600
199  2 -0.5995  5.325750 22.815000  4.400870
200  2 -0.5328  5.227820 22.972000 17.127900
201  2 -0.4919  9.842220 11.012600  4.963640
202  2 -0.4434  9.364420 10.880000 16.909000
203  2 -0.6323  9.477570 22.934300  4.897730
204  2 -0.4099  9.614970 22.694200 16.952100
205  2 -0.4480 14.112600 11.343300  4.848280
206  2 -0.5696 13.376500 10.834500 17.022800
207  2 -0.5996 13.494300 22.623400  4.666060
208  2 -0.4945 13.659000 22.645800 16.811000
209  2 -0.5128  3.111960  1.036150  7.128880
210  2 -0.5086  3.081970  0.954442 20.029300
211  2 -0.6146  3.066070 12.168900  7.899920
212  2 -0.5598  3.379070 12.672300 20.099700
213  2 -0.5122  7.290840  1.058230  7.468820
214  2 -0.5323  7.168270  0.953131 20.153200
215  2 -0.5486  7.498090 12.609400  8.044600
216  2 -0.4714  7.312690 12.504500 20.037800
217  2 -0.4050 11.532600  1.051150  7.528750
218  2 -0.4836 11.766900  0.333825 19.882600
219  2 -0.5249 12.093300 12.333000  7.414400
220  2 -0.6081 11.423200 12.551500 20.199400
221  2 -0.4417 15.540000  0.900904  7.663650
222  2 -0.5691 15.737200  0.968969 20.342600
223  2 -0.5457 16.012000 12.491500  7.934970
224  2 -0.5066 15.936800 12.466000 20.076500
225  2 -0.4777  3.330680  5.630610  1.683740
226  2 -0.5297  3.156090  5.229970 14.062800
227  2 -0.4775  3.401900 17.125400  1.826770
228  2 -0.5407  3.004980 16.917900 13.878000
229  2 -0.5377  7.362730  5.457670  1.576040
230  2 -0.4356  7.519460  5.404230 13.818700
231  2 -0.5549  7.327600 16.964400  1.671690
232  2 -0.4918  7.305980 17.305200 13.600100
233  2 -0.5699 11.802500  5.552830  1.866670
234  2 -0.5173 11.536400  5.260990 13.395000
235  2 -0.5043 12.089900 16.721900  1.847280
236  2 -0.4647 11.260700 16.610300 13.596700
237  2 -0.4987 16.170600  5.539540  1.543320
238  2 -0.5407 15.510700  5.138610 14.026200
239  2 -0.5279 16.021300 16.955100  1.815360
240  2 -0.4842 15.929200 17.068000 13.589800
241  2 -0.5466  1.045970  6.563620 11.426500
242  2 -0.4964  1.291920  6.765280 23.406600
243  2 -0.5529  1.273200 18.452600 10.840600
244  2 -0.5496  1.297310 18.337700 23.162700
245  2 -0.5700  5.472700  6.616480 10.780400
246  2 -0.5294  5.619280  6.928410 23.451500
247  2 -0.5354  5.019950 18.428500 10.890100
248  2 -0.5356  5.507430 18.031100 23.288000
249  2 -0.6280  9.671660  6.743290 10.524100
250  2 -0.5783  9.880550  6.575670 23.346100
251  2 -0.5584  9.346430 18.666200 10.462500
252  2 -0.4468  9.772540 18.469500 23.196400
253  2 -0.5630 13.553000  6.488320 10.599600
254  2 -0.5511 13.676600  6.823330 23.412900
255  2 -0.5857 13.549000 18.597500 10.405700
256  2 -0.4885 13.711200 18.479800 23.438800
257  2 -0.6421  1.145900 10.225700  1.282120
258  2 -0.5479  1.262140 10.039300 13.320600
259  2 -0.6332  1.439180 21.893100  0.950395
260  2 -0.6867  1.150500 21.903600 13.418500
261  2 -0.5893  5.399030 10.381100  1.049050
262  2 -0.5928  5.323320  9.875120 12.979500
263  2 -0.7344  5.514450 21.834500  0.928223
264  2 -0.6400  5.274700 22.116200 13.037500
265  2 -0.6106  9.907710 10.391000  1.205010
266  2 -0.5494  9.492050 10.008600 13.316200
267  2 -0.6518  9.261290 21.878400  0.843267
268  2 -0.7266  9.573970 22.020100 12.842200
269  2 -0.5676 14.001500 10.499000  0.957365
270  2 -0.5214 13.747400 10.162700 13.391100
271  2 -0.5661 13.583200 21.964200  1.215200
272  2 -0.6243 13.407700 21.270300 13.170500
273  2 -0.7208  3.257090  1.754280 11.609100
274  2 -0.6867  3.251590  1.903450 23.851100
275  2 -0.6354  3.114730 13.644700 11.536000
276  2 -0.6519  3.251460 13.327400 24.197400
277  2 -0.7171  7.271160  1.809190 11.176800
278  2 -0.5443  7.763650  1.708020 23.642900
279  2 -0.5224  6.876080 12.977900 11.504100
280  2 -0.5651  7.469780 13.445600 23.773600
281  2 -0.6032 11.880300  1.751990 11.176900
282  2 -0.5482 11.946200  1.791830 23.566700
283  2 -0.6119 11.199200 13.610300 11.605200
284  2 -0.5978 11.990100 13.065100 24.049600
285  2 -0.5685 15.730300  1.300170 11.721500
286  2 -0.6423 16.269800  1.953250 23.906300
287  2 -0.5799 15.601200 13.295600 11.690700
288  2 -0.6401 16.217600 13.581700 23.878800
289  2 -0.5827  3.603860  4.550180  5.081130
290  2 -0.6326  2.708080  4.322170 17.988900
291  2 -0.5803  3.763820 16.335400  5.355380
292  2 -0.6464  3.426620 16.027900 17.493600
293  2 -0.5780  7.595790  4.725450  5.526210
294  2 -0.6845  7.261070  4.342180 17.662500
295  2 -0.6115  7.624310 15.984300  5.319140
296  2 -0.6201  7.555250 15.923200 17.356700
297  2 -0.5769 11.899500  4.478750  5.482760
298  2 -0.5581 11.779100  3.768520 17.535500
299  2 -0.5515 11.771600 16.526900  5.242710
300  2 -0.6561 11.743600 16.029800 17.849700
301  2 -0.6093 16.131700  4.176070  4.996410
302  2 -0.6295 15.965000  4.563490 17.974500
303  2 -0.5958 15.868100 16.402400  5.287430
304  2 -0.5036 15.637900 15.621300 17.425400
305  2 -0.6797  1.005760  7.291050  7.450790
306  2 -0.6173  1.057260  7.907100 19.745100
307  2 -0.6005  1.567350 19.337900  6.936440
308  2 -0.5626  1.461910 19.445600 19.205800
309  2 -0.5474  5.350790  7.750130  7.282900
310  2 -0.7014  4.955480  7.647410 19.538600
311  2 -0.5204  5.486520 19.150100  6.988150
312  2 -0.6517  5.251650 19.163700 19.267000
313  2 -0.5585  9.629430  7.915040  7.182540
314  2 -0.7273  9.616590  7.522670 19.393900
315  2 -0.6168  9.686690 19.192600  6.948410
316  2 -0.6630  9.679360 19.250400 19.521100
317  2 -0.6443 13.731300  7.633870  7.200910
318  2 -0.6587 13.211000  7.943990 19.564700
319  2 -0.6241 13.726100 19.623600  6.892170
320  2 -0.7861 13.905600 19.528300 19.100500

