Generated by pymatgen.io.lammps.data.LammpsData

320  atoms

  2  atom types

0.000000 16.864293  xlo xhi
0.000000 23.165087  ylo yhi
0.000000 24.472453  zlo zhi

Masses

1  208.9804
2   78.9600

Atoms

1    1  0.6514  8.799490  9.576330  3.344180
2    1  0.6070  9.907430  8.000050  0.257703
3    1  0.7693 14.803500  6.569600 18.578600
4    1  0.7645  1.655770  4.918530 17.671500
5    1  0.8477  5.295400 12.818700 13.291300
6    1  0.7008  4.154750 12.929900 18.354200
7    1  0.6353  2.105860 18.204000 14.069900
8    1  0.6526  5.808660  6.808190 18.455900
9    1  0.7419 11.186700 11.085800  9.940230
10   1  0.6510  4.428940 12.574200 23.648800
11   1  0.6172 11.934900  2.726570  8.437910
12   1  0.7677 15.014400 21.621500 24.208200
13   1  0.7744 15.940300 10.014200  4.219130
14   1  0.4873  2.713030  7.203030 20.743200
15   1  0.7694  1.553410 22.368600 16.210700
16   1  0.6361  0.663794  1.813230 24.179400
17   1  0.8022  4.779420 19.408000  3.558970
18   1  0.7271 13.004800  8.615660  8.023190
19   1  0.6153  0.687901  5.168830  1.361720
20   1  0.6226  4.385980  3.069530  9.404750
21   1  0.8190  9.625810  3.046900 12.378500
22   1  0.6197 16.543100  2.440280 20.097700
23   1  0.6855 12.392500  7.531310  3.160110
24   1  0.5267  6.715080 13.139100  8.740820
25   1  0.7635  7.147960  0.698979 10.846000
26   1  0.7984 16.174000 20.912000 12.306200
27   1  0.8156  8.910400 12.526400  6.170910
28   1  0.8137  3.477370  9.919190 15.353100
29   1  0.8012  1.194120  9.435510 18.306300
30   1  0.6783  9.519580 22.282600 13.593400
31   1  0.6430 16.556200  6.147270  4.704200
32   1  0.6871 15.006600  3.371450  6.422950
33   1  0.5925  0.408691 11.558600  7.736200
34   1  0.5980  2.741610  0.710081 21.592900
35   1  0.6403 15.953600 14.261700  9.292390
36   1  0.6680  4.134750 21.694900 23.054600
37   1  0.7819  2.211350  1.229670  7.326210
38   1  0.5582  6.125810  7.300240 21.701100
39   1  0.5719  4.978000 19.505900 11.608600
40   1  0.4544  7.742730 21.182800  4.246340
41   1  0.7938 12.878500 19.287100 11.184700
42   1  0.6944 16.171600  5.861950 12.386400
43   1  0.7936  6.880800 19.498400 21.083000
44   1  0.6993  7.000500 14.560600 20.628700
45   1  0.7035  1.842840  7.931870  5.921490
46   1  0.6753 12.739300  3.621420 18.499100
47   1  0.7859  3.293320 21.752300 11.621300
48   1  0.8230 12.997900  9.909330 13.663300
49   1  0.7713 12.994900 13.105000  7.020760
50   1  0.5205 15.927100  5.067760  9.494210
51   1  0.4631 10.072500  1.069490  5.296530
52   1  0.7149  7.169240 14.218700 15.790300
53   1  0.7968  6.381990  7.610810  5.263520
54   1  0.6531  6.556260  6.874190 13.018200
55   1  0.6397  0.469812 14.264300  4.549420
56   1  0.7481  4.546830 17.383100 19.423700
57   1  0.8271  8.722080 10.413100 13.828900
58   1  0.7652  3.547050  7.751950 11.950500
59   1  0.7219 11.694500 20.459700  2.137900
60   1  0.7527  5.448000 18.812300 15.575600
61   1  0.8447  4.490070  4.625480  3.387100
62   1  0.6441  8.015060  5.386500 15.482800
63   1  0.8853  2.513260 10.589300  2.314240
64   1  0.6684  6.650120  0.943916 24.264800
65   1  0.6787  2.672550  5.654090  8.516680
66   1  0.7876 12.411700  2.426820  3.173590
67   1  0.8698  7.459970 16.643700  3.255410
68   1  0.8388  7.648230  9.788870 17.589300
69   1  0.7969  6.634070 22.558700 14.269100
70   1  0.7679  1.758250 21.278200  5.165670
71   1  0.4789 10.731500 20.987100  5.062720
72   1  0.7757  4.206880 18.871800 23.982000
73   1  0.7935  4.092550  1.249880 17.986000
74   1  0.5780  5.900650  0.834392  3.664940
75   1  0.8165  8.167550 16.042500 24.377800
76   1  0.8270  3.987780 19.630900  6.979840
77   1  0.7080 13.235300  1.917380 23.420800
78   1  0.7832  7.828370  0.513513 21.314100
79   1  0.6574 10.255900 16.931700  8.810100
80   1  0.8018  6.688800  8.792100  9.646940
81   1  0.7127  5.632880  3.719110  6.927940
82   1  0.7445  9.790620  5.656800 18.633600
83   1  0.7355 16.482200  0.250932  9.754870
84   1  0.6776  5.487860  2.895650 14.196700
85   1  0.7176  5.979290 11.855900  2.747160
86   1  0.5581  4.002820 10.089200 21.014000
87   1  0.7526  9.424610 21.720800 10.134800
88   1  0.6528  7.943550 19.877300  1.295860
89   1  0.7660  8.226670  5.509050  2.571540
90   1  0.6151 13.412700  4.062860 11.129700
91   1  0.5740 12.036800  5.570010  6.321310
92   1  0.8178 12.657000  0.253391 15.500600
93   1  0.6274  9.000030 14.216100 10.935900
94   1  0.7801  8.950930  4.299230 22.112400
95   1  0.7871  4.504740 15.260300  1.725890
96   1  0.7795  7.758260 22.562900 17.594000
97   1  0.7394 13.995900 21.062000  7.428790
98   1  0.8182 11.094300 23.085300 19.350300
99   1  0.7613  1.824080 16.507200  8.618150
100  1  0.7445  1.127470 16.769200  2.160670
101  1  0.6662  9.144180  4.412700  5.653830
102  1  0.5469  6.379090  0.565225  6.815740
103  1  0.6006  3.876120 16.541600 11.667500
104  1  0.6701 10.010300 21.924600 24.089500
105  1  0.6010 11.189900 18.130000  5.608850
106  1  0.5594 14.048000  5.569440  0.517494
107  1  0.7869  1.629520  2.323170 13.114200
108  1  0.7240 15.148500  0.248466  3.188810
109  1  0.7389 12.056100  6.007060 15.727600
110  1  0.6310 16.332000  5.730030 21.865600
111  1  0.6978 14.362100 17.390500  5.956330
112  1  0.6876 15.587800 18.529300  9.646230
113  1  0.8417  4.467140  4.385540 24.318100
114  1  0.7309  8.358340 17.699800 12.650100
115  1  0.8061  4.708890 11.103000  5.757230
116  1  0.7188  2.346090 12.775600 10.476500
117  1  0.7339 15.672300 19.613800  3.379870
118  1  0.7346  3.901730 20.788800 18.729900
119  1  0.5502  8.157070 19.807600  6.947560
120  1  0.6805  9.496870  8.658270  7.279920
121  1  0.5975  8.382270  1.748650  2.501340
122  1  0.7292 15.736900  2.446690 16.332200
123  1  0.7332  8.193710 11.611300 23.680900
124  1  0.5465  6.745200 16.621300  9.093900
125  1  0.6857 12.076400  5.758720 21.545100
126  1  0.7781  8.806920  5.797940  9.552980
127  1  0.8406  5.151610 16.773100  6.402030
128  1  0.6964 15.618100 10.030200 10.946600
129  2 -0.5769  1.369810  7.013390 10.691800
130  2  0.0146 13.948000 18.856000 18.220400
131  2 -0.3937 11.343600 12.267900 12.549600
132  2 -0.5466  3.061040 13.814400  6.600900
133  2 -0.7277  7.501170  6.677790  7.771970
134  2 -0.7308  4.957040 21.567300  5.549830
135  2 -0.7835  5.053890 14.074400 10.796600
136  2 -0.4306  2.642130 16.263700 24.187900
137  2 -0.7236  9.821240  0.932318 11.114400
138  2 -0.4172 14.323700  7.594490 21.859000
139  2 -0.6852  1.670280  2.389260 16.743800
140  2 -0.5254 15.215100 18.591700 12.507700
141  2 -0.4273  7.486300  1.862290 18.756900
142  2 -0.6022  3.516920  6.642930 16.467500
143  2 -0.2990  9.820270 18.431000 22.668100
144  2 -0.0232 11.183600 15.635100 21.161700
145  2 -0.4902 10.333300 10.570500  1.577660
146  2 -0.4859  8.823250 14.051100 22.277400
147  2 -0.6463  6.493250 19.256800 18.412000
148  2 -0.4232 15.098300  0.940895 14.116500
149  2 -0.7847  1.929500  4.245240 23.155900
150  2 -0.5828 10.059100  5.234360 13.524600
151  2 -0.7075  6.684020  3.583990  1.613290
152  2 -0.2109  9.748890 14.456900 18.777300
153  2 -0.0437 12.950300 10.376200 23.138500
154  2 -0.5932  4.480870  0.551554  8.893970
155  2 -0.7588 11.752000  5.987200  9.294080
156  2 -0.4234 11.099700  8.812670 15.369900
157  2 -0.6082 13.965300 12.115400 10.284600
158  2 -0.8321  5.379540 17.154000 13.823900
159  2 -0.5182  4.105080  1.341470  0.694891
160  2 -0.2284 12.426700 10.297400  4.187460
161  2 -0.2970 15.629000  9.703100 18.219100
162  2 -0.3400 14.887900 12.964000  3.825060
163  2 -0.7204  4.699480 21.184300 14.030600
164  2 -0.0028 12.776200 17.452400 23.233400
165  2 -0.7078 -0.167564 16.045100  7.306280
166  2 -0.8015  4.333140  9.842280 18.185900
167  2 -0.5907  3.013600 18.883000 17.458800
168  2 -0.0019 13.930000 18.887800 21.240400
169  2 -0.5608  4.180830  8.885860  4.113440
170  2  0.0449 15.416100 17.392600 21.276200
171  2 -0.6929 11.382700  5.360100 24.566900
172  2  0.0455 15.283700 12.915000 22.734000
173  2 -0.0133 16.069300 13.325400 19.133000
174  2 -0.1383  1.448040 13.928600 23.151800
175  2 -0.3678  2.987350 15.326900 17.627900
176  2 -0.0048 14.382900 17.817900 15.867800
177  2 -0.5647 15.501600  0.671562 21.942400
178  2  0.0485  0.190201 15.141700 22.025800
179  2  0.0083 11.389500 12.599000 19.919100
180  2 -0.3938 13.881100  8.845630  1.404880
181  2 -0.8225  6.163480 17.699200  1.390530
182  2 -0.5761 12.793600  2.992460 15.451300
183  2 -0.6195  8.052140 13.718200 13.469200
184  2 -0.4618  4.106640 14.823300 21.146400
185  2 -0.5761  6.307310 21.302100  8.357540
186  2 -0.8545 14.343800  4.105390 20.999300
187  2  0.0562 13.096000 11.724300  0.128639
188  2 -0.4023  1.368600 11.413400 20.023900
189  2 -0.6197  0.649846  3.794990  6.785570
190  2 -0.4653 15.289100 16.667500  3.077480
191  2 -0.3287 12.300000 21.415700 22.138100
192  2 -0.3592  2.925720 14.480700 13.470100
193  2 -0.6122 16.532300 19.400700  6.360990
194  2 -0.7071  1.191120  3.015220 10.110100
195  2 -0.4653 14.042000 22.116400 11.473500
196  2 -0.5891 10.408000  1.072130 17.074900
197  2 -0.2571 12.008800 15.530300  4.534770
198  2 -0.7113 12.218100  6.794560 18.739600
199  2 -0.6590  6.724120  3.653110 11.456600
200  2 -0.5649  1.692040  4.824100 13.305900
201  2 -0.7005  8.495050 11.359100 10.428400
202  2 -0.5909  7.389090  6.013540 23.999400
203  2 -0.4844  5.790570 14.926200  4.723050
204  2 -0.2373 11.310000 20.656100 17.235300
205  2 -0.7395  7.422060 21.482800 11.935300
206  2 -0.3563 16.763400  9.256860 13.625400
207  2 -0.0293  0.518052 16.013200 15.919400
208  2 -0.7137  5.675960 21.642900  2.118670
209  2 -0.0214 13.942600 14.164800 21.511200
210  2 -0.6989  0.978211 20.490900 10.494200
211  2 -0.4220  2.208790 17.577300  5.636650
212  2 -0.6491 14.739000 10.613300  6.909380
213  2 -0.5621 13.903800  1.120750 18.126600
214  2 -0.6645 12.814700 -0.270787  0.917099
215  2 -0.2736  8.885890 16.677600 15.640400
216  2 -0.4218  5.236240 10.803800 11.245500
217  2 -0.3133 16.830700 12.849900 12.347100
218  2 -0.5122  5.331010  2.959740 22.366700
219  2 -0.7288  3.742300 13.055900  2.776970
220  2 -0.0926 16.200100 16.680200 24.198500
221  2 -0.2996  1.503220  0.656280  3.994230
222  2 -0.5797  7.403500  5.066770 20.193600
223  2 -0.6199  3.637200  5.669170  6.035300
224  2 -0.5612  8.591070  8.207610 11.738400
225  2 -0.5259  1.996750 10.393700  9.288570
226  2 -0.5214 13.860600  6.873330 13.916000
227  2 -0.8013  9.764150 18.945300  3.426080
228  2 -0.4419  9.069420  9.153440 21.743600
229  2 -0.2621 15.909500 22.117100 16.645800
230  2 -0.5226  3.765800  3.830250 19.571000
231  2 -0.3453  0.233010 19.876700 15.509400
232  2 -0.5907  1.447780 23.220400 18.969300
233  2 -0.7170 10.853200 10.837100  7.008950
234  2 -0.2346  0.200148  8.533250 23.749200
235  2 -0.0049 11.959400 14.603300 24.006800
236  2 -0.1979 10.993200 16.734800  1.141200
237  2 -0.4136  3.817220  6.758440  1.127700
238  2 -0.6737  6.349090  8.807380 14.911200
239  2 -0.4356 14.106900 19.154900  1.074520
240  2  0.0727 14.867200 14.962800 14.097500
241  2 -0.5620 12.448600  8.738410 11.275200
242  2 -0.5836  0.559021 16.422200 11.041400
243  2 -0.5682  1.134580  8.191760  2.952660
244  2  0.0765 12.661100 13.923700  1.972980
245  2 -0.8332 10.001300  3.718910  3.347260
246  2 -0.1365  0.480580 20.627500 21.533100
247  2 -0.9382  9.749850 22.562400  2.713580
248  2 -0.7886  6.801090 18.332700  5.047590
249  2 -0.8091  6.621050  4.870730  4.851480
250  2 -0.5788  6.437690  9.405810  0.702640
251  2 -0.5645  8.014420 20.549500 15.646900
252  2 -0.6767  4.038660 19.342100 21.406800
253  2 -0.6422 14.520000  1.978550  9.766500
254  2 -0.8274  0.438891  6.933620 19.407600
255  2 -0.4933 15.757000  0.308696  6.041570
256  2 -0.3742  9.263140 11.748600 16.070500
257  2 -0.6237  9.009090 21.702300 20.440700
258  2 -0.0720 10.869500  9.899430 18.357300
259  2 -0.5831  1.053310 19.718200  2.183810
260  2 -0.0330 13.546900 16.421500 19.293700
261  2 -0.5310 13.577100 15.689200  8.614780
262  2 -0.6969 13.718100  7.401790  5.760790
263  2 -0.7580  5.192540 22.557400 20.402300
264  2 -0.6661  5.505500  6.533720 10.556700
265  2 -0.5877 10.450200 14.255100  7.320320
266  2 -0.4586  3.162420  9.950710 24.142200
267  2 -0.7503 12.543300  2.129970  5.816410
268  2  0.0248 11.596600 15.281500 14.836200
269  2 -0.0106 14.756800 13.674400 16.720900
270  2 -0.8909  4.140510 17.652700  8.744540
271  2 -0.5871 16.206200  5.505320 16.192500
272  2  0.0015 11.135600 18.120900 20.193500
273  2  0.0233 16.616900 18.165700 18.017500
274  2 -0.6604  4.265070  2.200420  5.234140
275  2 -0.3099 12.623600  1.582880 12.495300
276  2 -0.7272  6.960830 13.881400  0.786132
277  2 -0.7016  8.081600  2.858080 14.879200
278  2 -0.4505  1.178150 22.174100  0.470106
279  2  0.0219 12.702300 15.786200 17.483100
280  2 -0.4380 10.788400 16.537400 11.673500
281  2 -0.6425  9.884090  1.422470 23.184200
282  2 -0.7927 12.772700 18.905600  8.340670
283  2 -0.7613  8.282710 18.787200  9.876760
284  2 -0.8654  7.189090 10.620700  5.529940
285  2 -0.5310 10.962400 19.937500 12.789800
286  2 -0.8032  6.848000 21.411500 23.450500
287  2 -0.6149  4.473330  1.099960 12.214100
288  2  0.0630 13.230700 11.211400 20.123500
289  2 -0.7229 15.170600  2.169920  1.267170
290  2  0.0058 15.411500 21.350800 19.237100
291  2 -0.5334  1.964140 21.560800  7.828500
292  2  0.0218 11.743100 18.056900 15.715700
293  2 -0.7924  8.107330  2.964210  8.119720
294  2 -0.7343 10.701200  3.583600 20.113900
295  2 -0.6873  1.587730 10.893700  4.999830
296  2 -0.6216  6.400540 16.952900 22.412400
297  2 -0.8192  9.330540  7.131460  5.062970
298  2 -0.4085  8.558590 12.975200  3.574780
299  2 -0.6667  1.449820 22.665000 13.128500
300  2 -0.4026  3.156020 10.814000 12.807500
301  2 -0.6923 13.846000  4.941060  3.733680
302  2  0.0150  0.207792 15.528900 18.904800
303  2 -0.6473  8.253400 16.315100  6.925970
304  2 -0.7049  6.164490 11.741800 20.965000
305  2 -0.4811  1.002270  4.058590  3.792210
306  2 -0.2648  1.401010 11.797600 16.336100
307  2 -0.0614 13.888300 15.545600 12.116000
308  2 -0.1486  0.802728 19.446500 23.327200
309  2 -0.7558  5.206560  0.284551 15.990600
310  2 -0.7929  8.069340  7.568790 17.647500
311  2 -0.4669  4.409270  9.205140  7.854450
312  2 -0.8192 13.389800 20.682100  4.520600
313  2 -0.0511 12.959600 11.767100 17.245500
314  2 -0.6889  5.537180 12.102200 15.970500
315  2 -0.6071 11.614800 22.392500  8.117740
316  2 -0.5947  3.888210 17.127600  3.629040
317  2  0.0591 16.066500 10.084800 22.530500
318  2 -0.2593  0.124450 11.858100  1.335340
319  2 -0.5904 16.023500  7.676950  8.572390
320  2 -0.0010 14.858900 14.856600  0.281656

