Generated by pymatgen.io.lammps.data.LammpsData

360  atoms

  2  atom types

0.000000 16.871067  xlo xhi
0.000000 22.058404  ylo yhi
0.000000 29.928687  zlo zhi

Masses

1  208.9804
2   78.9600

Atoms

1    1  0.7735  2.157490 13.512600 21.802700
2    1  0.6794  4.179890 17.490000 22.304600
3    1  0.6773  2.590210  5.972350 22.055100
4    1  0.7725  4.378100  9.400650 22.710400
5    1  0.7047  6.206290 13.548100 23.098700
6    1  0.6784  8.447010 16.752100 23.519500
7    1  0.8627  2.213200 21.212100 21.862600
8    1  0.8416  3.755500  2.623700 22.183200
9    1  0.7750  6.401270  5.827710 21.743700
10   1  0.7085  8.605630  9.925730 21.484400
11   1  0.7417 11.439300 13.720200 22.123200
12   1  0.7427 12.882600 17.257500 22.477200
13   1  0.7574  6.454290 20.669500 21.986800
14   1  0.8002  7.980450  2.256270 22.244200
15   1  0.8589 10.502300  5.755420 22.797800
16   1  0.8663 12.780500  9.503220 22.513700
17   1  0.8344 14.918000 13.245000 22.481700
18   1  0.7625  0.227752 17.131000 22.037000
19   1  0.8727 10.279700 20.945000 22.082800
20   1  0.8135 12.473700  2.696670 22.804900
21   1  0.8076 14.997700  5.735940 22.265000
22   1  0.7321  0.036553  9.952960 21.891300
23   1  0.7751 15.059000 21.048900 22.503800
24   1  0.8151 -0.045359  2.645720 21.975500
25   1  0.7699  2.367750 13.901000 28.032400
26   1  0.7609  4.451500 17.817200 29.036600
27   1  0.7030  2.261480  6.509630 28.342200
28   1  0.7683  4.077680  9.973960 28.484200
29   1  0.7607  6.355950 13.606100 27.971500
30   1  0.7976  8.241170 17.301600 28.323100
31   1  0.7494  2.070000 21.213500 28.453800
32   1  0.8141  4.354150  2.283440 28.157200
33   1  0.8013  6.027780  6.378540 28.807000
34   1  0.7655  8.612950 10.254700 28.998900
35   1  0.7719 10.723800 13.834900 28.668200
36   1  0.8262 12.581100 17.565200 28.630200
37   1  0.7295  6.252800 20.907400 28.966300
38   1  0.8243  8.965380  2.374350 28.650700
39   1  0.7574 10.890500  6.065030 29.058700
40   1  0.7856 12.960300  9.794290 27.672800
41   1  0.7670 14.692300 13.425500 28.108300
42   1  0.7903  0.326298 17.781500 28.932900
43   1  0.8067 10.432300 20.702000 28.918200
44   1  0.8058 12.514500  2.531750 28.904000
45   1  0.8380 14.809600  6.389980 28.911800
46   1  0.7866  0.232212  9.913380 28.429300
47   1  0.7739 14.463900 20.941500 28.116300
48   1  0.7114  0.231430  2.505300 27.861400
49   1  0.7517  2.135610 16.376200  2.668340
50   1  0.7561  4.648330 19.876100  2.056960
51   1  0.7350  2.195490  9.119150  1.742920
52   1  0.8453  4.199180 12.628800  1.214020
53   1  0.8614  6.550380 16.062600  2.226940
54   1  0.7882  8.590810 19.756200  2.167300
55   1  0.7157  2.096450  1.638860  1.325780
56   1  0.6625  4.194850  4.661400  2.183450
57   1  0.7709  6.244870  8.959800  1.927880
58   1  0.7748  9.039730 12.437300  2.507090
59   1  0.8038 10.601600 16.345300  1.873630
60   1  0.7480 12.502100 19.928000  2.434790
61   1  0.6563  6.118380  1.142700  2.460710
62   1  0.6595  8.268740  4.932500  2.059390
63   1  0.7217 10.443400  8.805360  2.483700
64   1  0.7784 13.027500 12.348000  2.040030
65   1  0.7939 15.024900 16.451100  2.527120
66   1  0.8500  0.381274 19.653000  2.099140
67   1  0.7342 10.315200  1.393320  2.922810
68   1  0.7475 12.315700  4.797990  2.362420
69   1  0.7688 15.292300  9.055260  2.996080
70   1  0.7391  0.433516 12.718200  1.697300
71   1  0.7303 14.828900  1.830180  1.924310
72   1  0.7214  0.156072  5.248630  1.623540
73   1  0.7600  2.859510 16.302400  8.937740
74   1  0.7077  4.177720 19.723200  8.702330
75   1  0.7939  2.064810  9.004630  8.491040
76   1  0.8387  4.388010 12.229100  9.094720
77   1  0.8438  6.844950 16.033100  8.773980
78   1  0.7922  8.470460 19.762300  8.868380
79   1  0.8295  2.192060  1.028440  8.269730
80   1  0.7853  4.668110  4.719410  8.702770
81   1  0.7593  6.433160  8.556850  8.392270
82   1  0.8879  8.709680 12.648600  8.860580
83   1  0.7730 10.692600 15.937000  9.023130
84   1  0.8142 12.763900 19.618300  8.680620
85   1  0.8131  6.237400  0.973755  8.465910
86   1  0.7130  8.473180  5.379080  8.534880
87   1  0.8008 10.800900  8.570000  8.187130
88   1  0.7712 12.883800 12.237400  9.126670
89   1  0.8023 15.348000 16.235800  8.846000
90   1  0.7441 -0.001831 19.701600  8.426590
91   1  0.7954 10.759900  1.090710  8.487780
92   1  0.8142 12.564100  4.810340  8.813370
93   1  0.8005 14.628800  8.285090  8.400050
94   1  0.7985  0.207890 13.021200  8.968460
95   1  0.7955 14.600700  1.017570  8.709760
96   1  0.7610  0.396193  5.137580  8.400040
97   1  0.7542  0.367369 14.464400 12.182500
98   1  0.7399  2.135380 18.531300 12.631000
99   1  0.6553  0.337873  7.217350 11.159600
100  1  0.7099  2.260210 11.406200 12.287500
101  1  0.7569  3.945090 14.814400 12.485900
102  1  0.8283  6.561100 18.992800 12.125700
103  1  0.7474 16.435200  0.244765 12.068600
104  1  0.7438  2.215490  3.496170 11.814400
105  1  0.7997  4.869840  6.949170 12.617700
106  1  0.8255  6.410640 11.219300 12.118600
107  1  0.7904  8.697500 14.235600 12.754100
108  1  0.7389 10.350200 18.954500 12.267200
109  1  0.8354  3.875450 -0.068244 12.267900
110  1  0.8346 11.247700  0.733632 15.859000
111  1  0.6857  8.910560  7.482790 11.789500
112  1  0.7987 10.688000 11.107900 12.244800
113  1  0.8213 12.705200 15.019100 12.116700
114  1  0.8042 14.548600 18.572200 12.723200
115  1  0.7913  8.575850  0.245748 11.666800
116  1  0.6823 10.255000  4.137500 11.595000
117  1  0.7887 13.209000  7.662790 12.057300
118  1  0.6690 15.380100 11.197200 11.852000
119  1  0.7087 12.490700  0.144457 11.711500
120  1  0.7147 14.672400  3.679490 11.819600
121  1  0.8217 -0.265382 14.396300 18.736300
122  1  0.8239  2.702730 18.308400 18.624000
123  1  0.7399  0.753827  7.180260 18.849500
124  1  0.6999  2.485890 10.832100 18.955300
125  1  0.7552  4.407430 14.874300 19.276200
126  1  0.8097  6.323450 18.654100 19.025200
127  1  0.8081 16.476300 -0.167625 18.154500
128  1  0.7594  2.318650  3.377570 18.742400
129  1  0.8051  4.473060  6.986760 18.590400
130  1  0.7448  6.310750 11.048100 18.993700
131  1  0.8624  8.066840 14.584200 19.126400
132  1  0.7902 10.381300 18.379500 19.521000
133  1  0.7672  3.814980 21.873000 18.707600
134  1  0.7933  5.756710  3.099290 17.555700
135  1  0.7821  8.682740  7.538410 19.329300
136  1  0.6232 11.208200 11.615900 18.567300
137  1  0.6263 13.059100 15.207700 19.177900
138  1  0.7621 15.013700 18.812200 19.392000
139  1  0.7787  8.946760  0.240214 18.898500
140  1  0.7587 10.579600  3.648810 18.959900
141  1  0.7336 12.448200  6.717970 18.729000
142  1  0.8025 14.935000 10.648700 18.929900
143  1  0.6939 12.744400  0.493342 19.059600
144  1  0.7654 15.204500  3.890430 17.664600
145  2 -0.8255  0.023031 15.678300  0.567849
146  2 -0.9169  2.612420 18.763000  0.711424
147  2 -0.8753 -0.105700  7.603340  0.324348
148  2 -0.9695  2.241280 11.322200  0.192586
149  2 -0.8111  4.810950 15.007700  0.191133
150  2 -0.8677  6.935520 18.192800  0.793982
151  2 -0.7902 16.556700 21.598800  0.324367
152  2 -0.9300  2.425220  3.734650 29.979500
153  2 -0.9165  4.324820  7.590360  0.586638
154  2 -0.8637  6.042160 11.399000  0.179482
155  2 -0.7698  8.498710 14.982200 -0.015359
156  2 -0.9313 10.566300 18.359100  0.415884
157  2 -0.9626  4.071710  0.185563  0.128423
158  2 -0.7612  6.823590  3.804180 29.321400
159  2 -0.8033  8.234700  7.804390  0.101644
160  2 -0.8770 10.749000 11.223700  1.031240
161  2 -0.7922 12.598400 15.000400  0.318509
162  2 -0.7568 14.834100 18.682200  0.508276
163  2 -0.9053  8.300970 21.957200  0.264742
164  2 -0.9640 10.894600  3.624940  0.347202
165  2 -0.7445 12.888200  7.585520  0.634985
166  2 -0.8136 15.134700 11.345700 -0.025749
167  2 -0.8269 12.211400  0.166810  0.740460
168  2 -0.8488 14.826500  4.020970  0.258829
169  2 -0.3323  2.272340 16.956000 27.034700
170  2 -0.3364  4.341650 20.117500 26.963300
171  2 -0.3878  2.346380  9.166490 26.571700
172  2 -0.3916  3.790610 12.281000 26.530900
173  2 -0.5012  5.893110 16.680600 26.856300
174  2 -0.2964  8.774460 19.742000 26.723000
175  2 -0.4081  2.373820  1.201280 26.541900
176  2 -0.3229  3.978230  4.780080 26.752700
177  2 -0.2752  6.083400  8.840640 26.814000
178  2 -0.3687  8.580500 12.195600 26.886800
179  2 -0.3800 10.682900 16.255200 26.874800
180  2 -0.2888 12.477700 19.558400 26.634400
181  2 -0.1558  6.718910  1.188210 26.223000
182  2 -0.2254  8.969790  5.404840 26.832500
183  2 -0.2583 10.133100  8.699820 26.786000
184  2 -0.3993 12.401200 12.204600 26.552300
185  2 -0.3421 14.751000 16.537300 27.173800
186  2 -0.3333 16.485900 19.748800 26.619500
187  2 -0.3550 10.622800  0.790673 27.177900
188  2 -0.4365 12.647600  5.602500 27.249800
189  2 -0.3871 14.625800  8.940690 26.384200
190  2 -0.3602  0.347348 12.263300 26.879400
191  2 -0.4372 14.123300  1.226840 26.774400
192  2 -0.3246 16.809800  4.918980 26.608400
193  2 -0.3693  0.328714 14.395600 23.500900
194  2 -0.3815  2.290820 18.718400 23.600500
195  2 -0.2934  0.310234  7.458840 23.985300
196  2 -0.3051  1.980770 11.446700 23.703100
197  2 -0.3862  3.370580 14.795700 24.021200
198  2 -0.2437  6.479970 19.551200 24.766000
199  2 -0.4590  0.585174  0.206907 23.562200
200  2 -0.3695  2.008170  3.743860 23.929400
201  2 -0.3352  4.200290  6.930150 24.181300
202  2 -0.2769  6.847700 11.189500 24.260100
203  2 -0.3343  9.422380 14.184300 24.354900
204  2 -0.3725 10.697100 18.277200 24.004300
205  2 -0.2249  4.279210  0.154498 23.960400
206  2 -0.3473  5.794770  3.827950 23.844100
207  2 -0.2858  7.975410  7.048120 23.877400
208  2 -0.2629 10.524100 11.025800 23.839800
209  2 -0.3259 12.978100 14.762900 24.472200
210  2 -0.3239 14.484900 19.093800 24.244000
211  2 -0.3395  8.508330 21.940000 23.785100
212  2 -0.3634  9.660660  3.024610 24.036600
213  2 -0.3349 13.045200  7.371210 24.182900
214  2 -0.3309 15.097200 11.525400 24.243100
215  2 -0.3306 11.667600  0.014642 23.798000
216  2 -0.3704 14.705100  3.639560 24.244200
217  2 -0.9120  2.431770 13.739800 10.169700
218  2 -0.7977  4.956490 16.736700 10.571200
219  2 -0.7842  2.651010  6.616020 10.190500
220  2 -0.8016  4.671710  9.942100 10.358600
221  2 -0.7792  6.449600 13.689300 10.999300
222  2 -0.8240  8.381310 17.259000 10.714600
223  2 -0.8750  1.830360 20.647400 10.085100
224  2 -0.7600  3.887410  2.088740 10.315800
225  2 -0.8281  6.246130  6.329070 10.202000
226  2 -0.8144  8.741200 10.307700 10.698600
227  2 -0.9045 10.459600 13.364600 10.484000
228  2 -0.8351 12.857900 16.995200 10.642700
229  2 -0.9005  6.158640 20.945800 10.279600
230  2 -0.7415  8.359130  2.622810  9.820010
231  2 -0.8786 11.258800  6.809580 10.381100
232  2 -0.8252 12.685300  9.635050  9.931420
233  2 -0.8503 14.959900 14.276900 10.819100
234  2 -0.7901  0.527980 16.693600 10.807900
235  2 -0.9683 10.646500 20.708000 10.141200
236  2 -0.9501 12.853600  2.459550 10.085300
237  2 -0.8826 14.581800  6.184500 10.148000
238  2 -0.9047  0.505471 10.536100 10.242000
239  2 -0.8925 14.735200 20.673500 10.404400
240  2 -0.8119  0.180585  2.384060  9.902040
241  2 -0.4009  0.340641 15.454800  7.189030
242  2 -0.2608  2.254930 18.867500  6.272410
243  2 -0.5183  0.148514  7.489910  7.233870
244  2 -0.2652  1.976380 11.966600  7.106810
245  2 -0.2541  4.600820 15.142800  6.937880
246  2 -0.3274  5.951390 18.474000  6.971790
247  2 -0.3285  0.111920  0.200829  6.801330
248  2 -0.3672  2.500030  3.523650  6.991820
249  2 -0.2577  4.341290  7.200820  6.619830
250  2 -0.4307  6.418340 11.901800  7.527000
251  2 -0.4600  8.696370 14.758700  7.373310
252  2 -0.3800 10.864100 18.366400  7.314220
253  2 -0.3421  4.558030 21.702800  6.632000
254  2 -0.2923  6.310820  3.434550  6.656260
255  2 -0.4670  8.455760  7.155110  6.797520
256  2 -0.3563 10.644900 11.563000  7.240440
257  2 -0.2903 13.286300 14.212700  7.270670
258  2 -0.3692 14.723200 18.467400  6.807850
259  2 -0.4264  8.887890 -0.206578  7.191080
260  2 -0.3196 10.995100  4.023130  6.752200
261  2 -0.3574 12.646500  7.045050  6.661260
262  2 -0.3497 14.853600 11.057700  7.191970
263  2 -0.3932 12.832400  0.253823  6.838580
264  2 -0.2546 14.919600  4.155850  6.949570
265  2 -0.3953  2.762500 13.375800  3.326810
266  2 -0.3312  4.059000 17.349400  4.092160
267  2 -0.2283  2.134470  6.805540  4.245310
268  2 -0.2034  4.467050 10.247000  4.071920
269  2 -0.2572  6.125210 13.504300  3.848410
270  2 -0.3729  8.288830 17.249200  3.793970
271  2 -0.3061  2.436170 21.200000  3.502880
272  2 -0.2397  4.100390  2.195570  4.369710
273  2 -0.3448  6.227970  5.917110  3.844520
274  2 -0.4308  8.269710  9.905760  3.909150
275  2 -0.3847 11.133600 14.254300  3.590900
276  2 -0.2587 12.595700 17.577900  4.388310
277  2 -0.3793  6.643140 20.648100  3.957710
278  2 -0.4609  8.269610  2.840240  3.920370
279  2 -0.3519 10.618500  6.031440  4.187930
280  2 -0.3064 12.318300 10.967100  4.269760
281  2 -0.3552 15.506900 13.215900  3.702280
282  2 -0.4582 16.377600 17.973800  3.961480
283  2 -0.3567 10.504200 21.021000  4.321980
284  2 -0.2530 13.307400  2.746500  4.366420
285  2 -0.3625 15.045700  6.013960  3.577800
286  2 -0.3793  0.513601 10.147600  3.912680
287  2 -0.2531 14.962300 21.766000  3.828640
288  2 -0.2989  0.881035  2.443010  3.565260
289  2 -0.8433  1.864960 15.765300 20.201300
290  2 -0.9530  4.050110 19.617800 20.495100
291  2 -0.9464  2.774250  8.429310 20.230800
292  2 -0.8393  4.772230 12.026200 21.153400
293  2 -0.8930  6.401100 16.223200 20.384900
294  2 -0.9302  8.478040 20.031100 20.372600
295  2 -0.9030  2.059960  1.561760 20.503800
296  2 -0.8661  4.653670  4.407800 19.994500
297  2 -0.8854  6.609230  8.345010 20.528800
298  2 -0.7846  8.784220 12.715800 20.592900
299  2 -0.8232 10.506700 15.959400 20.891600
300  2 -0.8094 13.023600 19.751000 20.962500
301  2 -0.7715  5.604920  1.006820 20.688400
302  2 -0.7870  8.821140  4.712270 20.887600
303  2 -0.8163 10.931800  8.113120 20.842800
304  2 -0.8797 13.201300 11.776000 20.957100
305  2 -0.9280 15.017000 15.870200 20.749400
306  2 -0.8123  0.393160 19.899200 20.045200
307  2 -0.9268 10.488500  1.230540 20.488500
308  2 -0.8244 12.489300  4.826170 21.417300
309  2 -0.7864 14.698600  8.524920 20.740800
310  2 -0.8806 -0.247484 12.271400 20.366300
311  2 -0.8447 14.974100  1.330480 20.350200
312  2 -0.9046  0.150122  4.891010 20.458300
313  2 -0.3179  2.506050 13.220200 17.168500
314  2 -0.4087  4.629340 17.242600 17.325800
315  2 -0.4795  2.194860  5.933060 17.152000
316  2 -0.2773  4.686880  9.532790 16.839000
317  2 -0.4480  6.224250 13.721100 17.647500
318  2 -0.1936  8.718170 17.235700 17.153300
319  2 -0.3469  1.856560 20.760700 16.875900
320  2 -0.4281  3.716040  1.519970 16.665000
321  2 -0.4065  6.702260  5.980120 17.599300
322  2 -0.3249  8.242940  9.557190 17.216900
323  2 -0.3063 10.093700 13.786500 16.819500
324  2 -0.2478 12.822000 17.483200 17.051500
325  2 -0.3290  6.633450 20.504700 16.969500
326  2 -0.4930  8.918000  2.285720 16.964000
327  2 -0.3677 10.525300  5.557740 17.184300
328  2 -0.2492 13.383300  9.845100 16.563800
329  2 -0.3301 14.705400 13.229300 16.981600
330  2 -0.2817 16.806400 17.447500 17.304200
331  2 -0.5236 10.754200 20.547600 17.713100
332  2 -0.5482 12.854900  2.698410 16.727200
333  2 -0.3772 14.505000  6.258320 16.882100
334  2 -0.3287  0.111662 10.108600 17.256000
335  2 -0.4298 14.297400 20.518800 17.271400
336  2 -0.2798  0.323988  2.461530 16.205300
337  2 -0.3903  2.319100 16.000200 14.252800
338  2 -0.4601  4.485580 19.878700 13.712300
339  2 -0.2378  1.968420  7.813050 13.807800
340  2 -0.4045  4.288090 11.909000 13.962100
341  2 -0.1280  6.922230 15.977500 14.868700
342  2 -0.5340  8.189620 20.510300 13.346400
343  2 -0.3925  1.839180  1.095090 13.530300
344  2 -0.2314  4.264940  4.468800 14.493800
345  2 -0.3213  6.931760  8.795810 13.769300
346  2 -0.3443  8.587170 12.141300 14.284300
347  2 -0.3469 10.931200 15.991700 14.109700
348  2 -0.5271 12.698400 20.539000 13.781900
349  2 -0.2150  6.210830  2.195240 13.248000
350  2 -0.1756  8.504330  5.521280 14.167600
351  2 -0.2910 10.766500  9.109130 14.166900
352  2 -0.4306 13.078700 12.595600 13.557400
353  2 -0.2696 15.782500 16.252700 14.060500
354  2 -0.3228 16.843500 20.234100 14.103200
355  2 -0.5555 10.342700  1.813570 13.095600
356  2 -0.2246 12.132600  4.852520 14.142800
357  2 -0.3316 15.654600  8.861290 13.549000
358  2 -0.2639  0.480081 12.057200 14.475200
359  2 -0.3452 14.967000  1.920480 14.120200
360  2 -0.3114 16.718200  4.878980 13.667700

