LAMMPS data file via write_data, version 2 Apr 2025, timestep = 10222, units = real

360 atoms
2 atom types

-0.0637431031437973 16.63441074314404 xlo xhi
-0.1125022714636558 21.638430971463453 ylo yhi
0 28.49317828 zlo zhi

Masses

1 208.9804
2 78.95999999999999

Atoms # charge

55 1 0.7663580708185367 2.0118220896911234 0.953193445505769 0.3786035564658808 0 0 0
288 2 -0.3219110299204075 -0.05989740890772929 2.0993577666224383 2.272470861435596 0 0 0
272 2 -0.3466340072787553 4.079250493476526 2.0504428393143974 2.1305952674124433 0 0 0
56 1 0.7665933060709095 4.0493697037984395 4.408101493415581 0.3747537044970767 0 0 0
248 2 -0.3484746694404733 2.1919478079322827 3.182024625360637 4.868559443195161 0 0 0
79 1 0.8489083556150661 1.9372309939284438 0.8164410178078308 6.611885358817896 0 0 0
80 1 0.8163476487757889 4.069214817844574 4.44607656107266 6.444553905905348 0 0 0
96 1 0.8061031897078205 -0.03456398215150358 4.461629560662994 6.461360201264422 0 0 0
224 2 -0.8832198288200825 4.0459155476981365 1.9557377287830369 8.090072878367996 0 0 0
240 2 -0.892509718221238 -0.04246592504627433 2.1405794136685454 8.069601521240463 0 0 0
104 1 0.7690198168924888 2.061995133425738 3.1673084794515693 9.95176711627128 0 0 0
343 2 -0.3500823738586833 2.1871957414335013 0.8805513025733136 11.650252380530153 0 0 0
344 2 -0.346241434445361 4.029683328017054 4.63527990231945 11.629559798056917 0 0 0
336 2 -0.361387297152435 -0.023670025401350277 2.1494455499906997 14.125279701160668 0 0 0
128 1 0.783930473381604 1.9820958414881729 3.3052619358822994 15.941043913097124 0 0 0
295 2 -0.8920713599461948 1.9710038317972487 0.9250737570393593 17.527766801896398 0 0 0
200 2 -0.3591866347979089 1.9624902656040437 3.208948562291623 20.911562800450987 0 0 0
8 1 0.7998434691054417 4.087411610032119 2.0833230015630684 19.26190014258204 0 0 0
192 2 -0.3155728879364962 -0.03269914961086239 4.547363955669621 23.5223998259545 0 0 0
175 2 -0.3451173934118535 2.0948512784204643 1.010410750949733 23.69199062261512 0 0 0
176 2 -0.3207623070983026 4.029234757189571 4.511133147732667 23.627480565218214 0 0 0
32 1 0.7729943997262686 4.093519523712061 2.1441383805602876 25.492373238239953 0 0 0
152 2 -0.8853648361243316 1.9672962525231117 3.451982016343443 27.080219344089567 0 0 -1
51 1 0.7767493147587842 2.1240499302378484 8.156005984726017 0.32884516299865657 0 0 0
267 2 -0.3231050147752226 2.091188975539367 5.615716248213358 2.223855727570907 0 0 0
286 2 -0.3601231142165912 -0.029856328590184944 9.181950076875182 2.0001103953272366 0 0 0
249 2 -0.3715305718321595 4.103947384912409 6.840899508115542 4.718768109585078 0 0 0
75 1 0.7950636425909378 1.997933653015836 8.115811910088883 6.309639618560748 0 0 0
243 2 -0.3666369546782458 -0.017927223334602616 6.814476374783996 4.750947098298219 0 0 0
244 2 -0.3603584727577318 2.1164060952288213 10.621790988363419 4.605870093889866 0 0 0
219 2 -0.8663016162201519 2.086209000608101 5.778357839543877 8.098278489937764 0 0 0
105 1 0.793242274513497 4.034507908579581 7.00355111318425 9.807988991202224 0 0 0
100 1 0.79801073966848 1.8604331590778596 10.581480070424407 9.78821254241954 0 0 0
220 2 -0.8796390725462351 4.000850804364069 9.31958691957546 8.200718050342653 0 0 0
238 2 -0.8657058072608779 -0.05562212720550619 9.324266736806477 8.107745420728781 0 0 0
339 2 -0.3194891043448001 1.9292110826627054 8.16187331993286 11.551505109479113 0 0 0
315 2 -0.3240973733611272 1.933151033882442 5.723075752274005 14.11993952504792 0 0 0
124 1 0.7883423086633078 2.0083986829668747 10.575771790641822 15.995440591524439 0 0 0
129 1 0.7982633444076489 4.058835576671617 6.89610144664596 15.927125105416954 0 0 0
291 2 -0.8649863177149509 1.9870945560576116 8.105747958478503 17.598380716936294 0 0 0
3 1 0.7840951781237817 2.002401075679884 5.645542818516975 19.28130918040181 0 0 0
195 2 -0.324514532798349 -0.043468014140607636 6.969669706911299 21.066255212980366 0 0 0
196 2 -0.355756256448272 2.066375531137946 10.440792035250405 20.987727894664854 0 0 0
201 2 -0.3451995661265442 3.9610041120656216 6.878601785529467 20.989055910852862 0 0 0
171 2 -0.3737996621418249 2.0425057796427457 8.109365271855339 23.841384938912267 0 0 0
27 1 0.804020130858347 1.8912628333204358 5.812212002882532 25.398077694446588 0 0 0
148 2 -0.8870010927971961 2.1144827163963353 10.719687060673868 27.112370748223082 0 0 -1
153 2 -0.8644175073164522 4.084012224635531 6.8976786278066164 27.119309326076994 0 0 -1
49 1 0.7545375664013708 2.015777466003235 15.473018922513758 0.3263204955607635 0 0 0
265 2 -0.3530674418949971 1.9679668453111885 13.069592563873064 1.9904607147175777 0 0 0
70 1 0.7848968489927106 -0.06118582579844031 11.839130354579117 0.242307206543459 0 0 0
52 1 0.7975295353781062 4.074706746865008 11.809811445390507 0.23712969618243698 0 0 0
241 2 -0.3525495303299698 0.13344538818106955 14.106281323323946 4.682550743802193 0 0 0
73 1 0.8189568523224602 2.114289494313437 15.310646500042639 6.460142767361494 0 0 0
94 1 0.7995451878549488 -0.018655413187338085 11.714078830677213 6.339067080975686 0 0 0
245 2 -0.3560657940776774 4.01659732874095 14.104186723356975 4.689772868657224 0 0 0
217 2 -0.8863957704135087 2.055128750076237 12.947088977420611 8.05782044839119 0 0 0
97 1 0.7775098196117859 -0.010258280178631278 14.097241964897337 9.919944139893708 0 0 0
337 2 -0.3313025461201414 2.128879498283349 15.1721250678885 11.716442257858962 0 0 0
340 2 -0.3673341659920378 4.043657106951592 11.569451913674481 11.509450011474511 0 0 0
313 2 -0.3812686444247356 2.04316141337574 12.995805995518987 14.395460024085171 0 0 0
125 1 0.8265977676017362 4.096481883289444 14.194340781254454 16.02725319109471 0 0 0
289 2 -0.9087240776837172 2.145751090679608 15.316077487511658 17.52877613103685 0 0 0
1 1 0.7759595784030846 2.1189460605041357 12.996102110975182 19.34954919407376 0 0 0
193 2 -0.3316993934895333 -0.02307790901022857 14.224474021890321 21.16817739633855 0 0 0
169 2 -0.337574410439593 1.9720029346801111 15.462587118161112 23.649791918547987 0 0 0
172 2 -0.3293312070962614 4.0428189254741635 11.94379856610527 23.59832087298691 0 0 0
25 1 0.8075880192085358 1.9683084427508402 13.085504983370981 25.432595936965036 0 0 0
149 2 -0.8911598173951103 4.1080077517160225 14.131881190640293 26.921858648800857 0 0 -1
66 1 0.7782176360851812 -0.02766360532767663 18.966275963436207 0.2539670979632378 0 0 0
271 2 -0.3116811104834318 2.0021594761068657 20.280124451840187 2.138587482869774 0 0 0
282 2 -0.3375190717474962 -0.046270473269743206 16.760892586266497 2.0560101652398575 0 0 0
242 2 -0.3466920665754872 2.1235848818625302 17.710610425041793 4.7734356139193705 0 0 0
253 2 -0.3621461028968584 4.076909518133908 21.546298593293777 4.903259223531752 0 -1 0
90 1 0.7908874851374323 -0.025304176245899868 18.89132277907915 6.4742463028385435 0 0 0
247 2 -0.3600999946665644 -0.041325285119690136 21.600919648393887 4.9155100283017505 0 -1 0
223 2 -0.9029422616484366 1.9972021252033947 20.243991787901543 8.134209782420573 0 0 0
98 1 0.7773892394551051 2.1970999759798624 17.792727817633544 9.962850455937993 0 0 0
234 2 -0.8761980019768678 0.10949282920977765 16.39747467976311 8.158659748465734 0 0 0
103 1 0.7767674535837036 0.0018798080827622243 21.340518122627454 9.86665813062875 0 -1 0
354 2 -0.3768540621546057 0.043534555462741764 18.915547323336348 11.541344231493467 0 0 0
122 1 0.8141952114563111 2.124153902637631 17.76868857241542 15.97888409229161 0 0 0
319 2 -0.3601732304881239 2.1261539950877992 20.102227870431072 14.325952140514273 0 0 0
330 2 -0.3397239409327405 0.01631782561635553 16.442796347510548 14.27497754195272 0 0 0
127 1 0.8040934919804166 0.007725229846696227 21.434506555462434 15.873185838240996 0 -1 0
306 2 -0.887237253856575 0.1262159233587144 18.98397040631891 17.606362908895967 0 0 0
290 2 -0.8933129879922549 4.088568583386961 19.010258889423255 17.652185276186803 0 0 0
7 1 0.8043497472483656 2.0966400071400315 20.329802651768166 19.318061922037252 0 0 0
18 1 0.765654782307537 0.16061782595771135 16.4683104127987 19.263426283917774 0 0 0
194 2 -0.347618834294234 2.189832144218837 17.906681017081464 21.018345142583776 0 0 0
31 1 0.7721933292347957 2.092816465881526 20.315476415069615 25.41899635755606 0 0 0
146 2 -0.9004341792923467 2.105322741563009 17.898307503865826 27.05145687705223 0 0 -1
42 1 0.7841705110925755 -0.011370402546529074 16.64054265633692 25.393763621888635 0 0 0
151 2 -0.9088773820006899 0.016654544774411306 21.511197538816475 27.215518678736313 0 -1 -1
61 1 0.7860483671086568 6.326001143634403 0.8886898456153532 0.43549283737841954 0 0 0
254 2 -0.3377776861441955 6.181782759757816 3.3144595150299003 4.7817117574044765 0 0 0
86 1 0.8126720207690871 8.211887798178935 4.552023961402261 6.490736240287728 0 0 0
85 1 0.8062176582807724 6.160758205935109 0.7877098662602712 6.48727718000701 0 0 0
230 2 -0.868520249607807 8.2120963772422 2.128634429309231 8.11903895255261 0 0 0
110 1 0.7662544003660551 6.061504718859115 3.293869034848089 9.826436069945448 0 0 0
349 2 -0.3307860534705181 6.200638456746499 0.874894441881065 11.637000678759483 0 0 0
350 2 -0.3523723970358381 8.21395141553127 4.538464487339188 11.460847387543225 0 0 0
320 2 -0.3444952369803074 4.234051549856736 2.171196954062709 14.239862652721408 0 0 0
326 2 -0.3684801667059616 8.274821768139233 2.3382756091575594 14.198601245233089 0 0 0
134 1 0.8058479771761561 6.2426214708399606 3.3742336968899256 15.949602159037944 0 0 0
301 2 -0.8958519000660135 6.153008965247416 1.0135081809045865 17.543477206918737 0 0 0
296 2 -0.8846876418620764 4.1572573162926325 4.414767069665947 17.61041662287196 0 0 0
206 2 -0.3222486935384017 6.178551483269312 3.45281996622977 21.142858179343026 0 0 0
182 2 -0.3299539966828929 8.246130362705248 4.525932871677179 23.65962970847474 0 0 0
181 2 -0.3468757603281059 6.094787834423462 0.9913994774781271 23.709682326698157 0 0 0
158 2 -0.8876545891090587 6.275692262483977 3.2597535129787047 27.13998326196827 0 0 -1
38 1 0.778002431350268 8.237089991732557 2.043106248265142 25.509210796639973 0 0 0
57 1 0.7909632915875557 6.2622905668199085 8.116082126964049 0.32477558585309824 0 0 0
273 2 -0.3293395936404462 6.23902717702356 5.7554793772871635 2.1355330318592207 0 0 0
274 2 -0.3141158051880301 8.257612880295262 9.316457505025827 2.109584537059292 0 0 0
268 2 -0.3617561989267053 4.241476229055099 9.298325960640643 1.986589497858704 0 0 0
250 2 -0.3342789167924629 6.347733459498855 10.554344216318505 4.609203950285739 0 0 0
81 1 0.7836251735137696 6.071210223340085 8.164424978704375 6.306081072641647 0 0 0
255 2 -0.3212916638568566 8.272430142698035 6.901908831564404 4.63557250210143 0 0 0
226 2 -0.8675788525835978 8.246008949895305 9.27248015993662 8.065842993613359 0 0 0
106 1 0.8047364182186244 6.1510251899338115 10.537253559098925 9.86586599083138 0 0 0
225 2 -0.8845659178476268 6.192416644155924 5.703935696418553 8.042093956372383 0 0 0
111 1 0.7951012268430336 8.24002306557271 6.8530809914352 9.738584507696952 0 0 0
345 2 -0.3106380711978903 6.197521348374556 8.147500410654704 11.605989587362462 0 0 0
321 2 -0.329029454023803 6.170866518937628 5.84457411657574 14.21977124458803 0 0 0
316 2 -0.3589030589376662 4.1661387275122115 9.29169709226642 14.425634946118636 0 0 0
130 1 0.7875101971906974 6.287169054413694 10.645436247604403 16.081324261789923 0 0 0
322 2 -0.3491107206462931 8.268287737562018 9.455527934200825 14.352448986313094 0 0 0
297 2 -0.8794365469816634 6.1925627031800055 8.107147197164673 17.623819064799704 0 0 0
4 1 0.7848917646670049 4.2504639504985215 9.446531691039402 19.336122523148386 0 0 0
9 1 0.7799513085278247 6.269739582481429 5.72412181339727 19.448775545341732 0 0 0
10 1 0.7753455816391975 8.262732760678233 9.48693081955536 19.186682612079927 0 0 0
202 2 -0.3679293037427531 6.19769104894261 10.645458454917337 21.058545297733517 0 0 0
177 2 -0.3456835471264963 6.22456202033381 8.246636695935242 23.648119238694477 0 0 0
28 1 0.7868726112739569 4.143049923830124 9.448753245800349 25.4425783707103 0 0 0
33 1 0.7704811017676438 6.148644147705315 5.7050327670440515 25.330136140435457 0 0 0
154 2 -0.9010776881261378 6.1850317290858445 10.518783551659443 27.054255309323185 0 0 -1
34 1 0.7865960172054591 8.217653709848518 9.287137414125848 25.550812673469682 0 0 0
269 2 -0.3447343023375517 6.328829711662828 12.823736476489929 1.9315550995875934 0 0 0
53 1 0.7671092817073576 6.233274257133206 15.419126594444853 0.11242133370326289 0 0 0
58 1 0.7995604783064726 8.271730279926455 11.779975611489428 0.19033538760009222 0 0 0
76 1 0.7783507038652051 4.125813988689475 11.749225564974923 6.3398891368174235 0 0 0
251 2 -0.3469475600785309 8.148550852488214 14.117492163933502 4.617874089570265 0 0 0
77 1 0.7733605959333399 6.147547623849306 15.22692587950236 6.492590038354619 0 0 0
221 2 -0.9018125999233364 6.297730544157472 12.822720038930184 8.141055457462404 0 0 0
101 1 0.7752934303438378 4.127804760360689 13.998965532033996 9.910450229074605 0 0 0
341 2 -0.339045995631842 6.239933441550543 15.230848359353116 11.605775855618274 0 0 0
346 2 -0.3167331646720554 8.197684948281971 11.70047777781309 11.575433435045118 0 0 0
317 2 -0.332832865341774 6.3006774891669854 12.915125915762214 14.2399876678662 0 0 0
131 1 0.7991745284428747 8.256869711363686 14.208852284736109 16.00493503005235 0 0 0
293 2 -0.8943905298222351 6.181479885359267 15.285387411070257 17.70121405633916 0 0 0
292 2 -0.8946986518989918 4.140055870399023 11.891328395017098 17.773637627993946 0 0 0
5 1 0.8118441000278441 6.262511695895173 13.013405378167002 19.445304644214275 0 0 0
197 2 -0.341587108471482 4.16762870949986 14.279556928125661 21.13065120494936 0 0 0
178 2 -0.3317741502689787 8.269615884131127 11.772290573446087 23.722254635320425 0 0 0
173 2 -0.3567303387510964 6.169328647618152 15.414532523358153 23.740530401039383 0 0 0
29 1 0.8233476296489668 6.159794483565705 12.937213164732471 25.327607504507814 0 0 0
155 2 -0.8740642356895985 8.183397813919937 14.163217221620338 26.93307040505484 0 0 -1
277 2 -0.3429566055827413 6.349076048033045 20.15219677451302 2.112507037305888 0 0 0
266 2 -0.3268440009926081 4.2714493361497405 16.64359756156789 2.0912516723668175 0 0 0
270 2 -0.3415436297773748 8.164442544736367 16.678859420963743 2.0258651998011254 0 0 0
50 1 0.7798807870665901 4.2263140357272855 19.043151831076777 0.2999630987395752 0 0 0
246 2 -0.3405026777319221 6.216357501452042 17.789738536211843 4.78416393641724 0 0 0
74 1 0.7703652966093213 4.122115133324046 19.036073219412195 6.517404931865538 0 0 0
229 2 -0.9103542370350985 6.384671604948788 20.228978927727603 8.182941549625191 0 0 0
218 2 -0.8858466221136772 4.151470836918726 16.517576155357894 8.233497538696255 0 0 0
102 1 0.7784962366153665 6.345947704288155 17.741908927395926 9.802377132388804 0 0 0
109 1 0.7748232418897186 4.265219295744466 21.276282084922656 9.879897634732117 0 -1 0
338 2 -0.3752818272199104 4.254031255871668 19.028196365109526 11.542204774983736 0 0 0
314 2 -0.337217976925122 4.355751049090715 16.549726629589326 14.239188700877621 0 0 0
126 1 0.7779943188709679 6.227778859363663 17.881141323736298 16.01819545387871 0 0 0
133 1 0.8087115562042142 4.1560519391351525 21.539147538624277 15.987293398381802 0 -1 0
325 2 -0.3915058796975043 6.294685504274181 20.299076642498065 14.43519958725761 0 0 0
205 2 -0.356549405138263 4.145159583492705 21.491291121188166 20.98441980859718 0 -1 0
13 1 0.7689051025925825 6.234702573991062 20.265587332233288 19.2066131586381 0 0 0
2 1 0.7835611360441235 4.201213780537685 16.61197712265258 19.323309771257858 0 0 0
198 2 -0.3246681210655726 6.464932168199288 17.775573208466543 21.081145637840336 0 0 0
170 2 -0.3199110647661491 4.16544878400203 19.102753760693457 23.579838436897028 0 0 0
150 2 -0.8990526999535495 6.291900322109847 17.838634213201505 27.037621026145754 0 0 -1
37 1 0.7849598966559863 6.297682552812985 20.278568433282828 25.38796104370718 0 0 0
30 1 0.8127798192182153 8.26239110624652 16.61672418069318 25.301924478817178 0 0 0
26 1 0.7866412789240401 4.198804408103298 16.6703911594745 25.4263759162835 0 0 0
157 2 -0.8811661105629626 4.196276118451689 21.374373895225023 27.167186513396565 0 -1 -1
67 1 0.7963605267385214 10.364747155058662 0.9444810010773971 0.38224700960661717 0 0 0
62 1 0.7979126725311003 8.325349925123778 4.475392709213064 0.40467173056842143 0 0 0
278 2 -0.3857270813433644 8.30964815261251 2.010903830719861 2.0249788301643443 0 0 0
260 2 -0.357990599298049 10.387768091109402 3.225678810978378 4.881502602165687 0 0 0
92 1 0.7951186278074753 12.373249903967816 4.464146296369737 6.441694430424573 0 0 0
91 1 0.8155143152718867 10.322729893147015 0.7945889493594405 6.507390567959549 0 0 0
236 2 -0.9085125176827572 12.404665441272508 2.0110624457316564 8.053672153914846 0 0 0
116 1 0.7836309780495438 10.369164065140954 3.1569054296671815 9.864691640033557 0 0 0
355 2 -0.3712900334770436 10.558405527101245 0.7150344543400899 11.480779346570936 0 0 0
356 2 -0.3406538258451566 12.434608274821137 4.361114646720275 11.627882071326152 0 0 0
140 1 0.8001211849360512 10.304589312755951 3.3230929992281593 15.877810044295382 0 0 0
307 2 -0.8787088344244629 10.546292344569308 0.8808828458790731 17.545716037375236 0 0 0
302 2 -0.9187262253755659 8.418585542979244 4.51037443851756 17.64803508513832 0 0 0
14 1 0.7839374773908563 8.33008241393396 2.224889170204178 19.2157032241702 0 0 0
212 2 -0.3374083042372598 10.43189374436444 3.3920370646399345 20.94938854169594 0 0 0
187 2 -0.3494961765590723 10.403754689544211 0.9288140779792281 23.75201738129383 0 0 0
164 2 -0.8816943358491452 10.392526766371248 3.3358300376556453 27.2160130500119 0 0 -1
63 1 0.7743029398259897 10.360176673405995 8.174016723719092 0.2997253854137091 0 0 0
279 2 -0.3294321179715374 10.393855192406548 5.513758399206476 2.1466713653118186 0 0 0
280 2 -0.3405800782129575 12.248019837463858 9.269246080241759 2.0787056271561384 0 0 0
87 1 0.792807902760071 10.265444298936046 8.122940827979052 6.519331287532089 0 0 0
261 2 -0.3257747482516039 12.348777116523134 6.886345020198305 4.699013618168841 0 0 0
256 2 -0.3485601108780702 10.445557267676696 10.433454113679373 4.7485560228311074 0 0 0
231 2 -0.8939744878148213 10.312507880091971 5.659583222955507 8.173921500315522 0 0 0
117 1 0.7658181783844167 12.411621297548269 6.872702706731853 9.839530074269172 0 0 0
112 1 0.7865505392639816 10.3752522657529 10.554709439340744 9.800781614116886 0 0 0
232 2 -0.8862428704613671 12.456210877755863 9.377567386381275 8.078160647767541 0 0 0
351 2 -0.3486896459659304 10.274457049976894 8.202268277777824 11.512408925675755 0 0 0
327 2 -0.3683383946234472 10.242786489863693 5.636663176914039 14.227641120004527 0 0 0
328 2 -0.3375027835590155 12.437375973688946 9.272191882793924 14.246295099722001 0 0 0
135 1 0.7956181408372557 8.360396807794954 6.857182210615237 15.97429515250928 0 0 0
136 1 0.8002721300497065 10.32759719853023 10.633671680769792 15.977951599362738 0 0 0
141 1 0.7692396386624459 12.408215742997514 6.855643211546766 15.933523620058166 0 0 0
303 2 -0.9028795683138964 10.36806525714626 8.217660977656292 17.636432524730484 0 0 0
16 1 0.7945650358692367 12.44693149647311 9.399736341675816 19.314989010616813 0 0 0
15 1 0.7750719041080562 10.503627291702063 5.798134114267539 19.25726889878448 0 0 0
207 2 -0.3300130181096677 8.39068728400271 7.017866105529752 21.054930742105483 0 0 0
208 2 -0.3753885561104968 10.362795958888562 10.524060385274362 20.91998060549867 0 0 0
183 2 -0.3498749954084074 10.290986841450739 8.237527419440342 23.72267069819363 0 0 0
160 2 -0.8916301552250667 10.308104134541969 10.655804176812406 27.116942542701494 0 0 -1
39 1 0.7733652088425684 10.359308903486342 5.802470308210272 25.486012680345123 0 0 0
159 2 -0.9065807810582116 8.323723599667732 6.92520268018564 27.202184372629198 0 0 -1
40 1 0.7742380160045012 12.402084045290474 9.324645350048648 25.346965308264277 0 0 0
275 2 -0.3807085914495482 10.358565929801456 12.893019326942275 1.9482087432359585 0 0 0
59 1 0.7764306787711851 10.393579956918224 15.385539799856828 0.2971197839855459 0 0 0
64 1 0.7642130543864659 12.404492895932249 11.764602464305119 0.31566402753395834 0 0 0
83 1 0.7786678084659617 10.462770814323406 15.17815525641223 6.303994494044353 0 0 0
82 1 0.7931870383897872 8.31999750861436 11.852740729336219 6.389806197275815 0 0 0
88 1 0.7698730199609684 12.418308585655522 11.810175794188247 6.392177442958351 0 0 0
227 2 -0.9123787983249317 10.304919728797309 12.911375581228617 8.191002488197846 0 0 0
107 1 0.7918988361869925 8.289070569916962 14.204165900117886 9.800127690625441 0 0 0
347 2 -0.3231285774819846 10.387476390268583 15.250004877307356 11.642742715736652 0 0 0
352 2 -0.3401582166436216 12.378432269635804 11.756493876477224 11.643295928549481 0 0 0
323 2 -0.3448403194050917 10.419641493261048 12.972879042513245 14.306420242990482 0 0 0
137 1 0.8289860557480756 12.451563249222678 14.221404708172868 15.99622258505132 0 0 0
299 2 -0.9011310256147976 10.362797451493176 15.471282376344075 17.581959475175847 0 0 0
298 2 -0.920553798742116 8.293473010536609 11.92290496852196 17.68238332647695 0 0 0
304 2 -0.8960994399412329 12.430103257986461 11.847887574939248 17.60239731105721 0 0 0
11 1 0.7967521578984019 10.417734388459507 12.98294511432449 19.385069763023385 0 0 0
203 2 -0.3312038397529878 8.309510737931793 14.284987668389274 21.120446364325748 0 0 0
179 2 -0.3595264415926768 10.287879691925887 15.469107825142968 23.720175714223423 0 0 0
35 1 0.8128065952414987 10.42457140068198 13.077959694928314 25.376713843030714 0 0 0
161 2 -0.8820086567222546 12.420300325399245 14.230724897935742 27.04600415111748 0 0 -1
283 2 -0.3578151859860809 10.399107758758056 20.384890590403156 2.0548818640403117 0 0 0
54 1 0.8018954588162627 8.333432611305401 19.023348282161383 0.3495447864855961 0 0 0
60 1 0.7666567383026344 12.368887650349322 19.14891904963397 0.23985134955067156 0 0 0
252 2 -0.3316564645104324 10.582828334907196 17.54953424778036 4.706922696682565 0 0 0
78 1 0.794050439140897 8.337675719988784 18.915665715503064 6.453775602433674 0 0 0
263 2 -0.330184558273353 12.334035870197445 21.55861931575627 4.796915956091647 0 0 0
259 2 -0.3164840158181909 8.330562269575603 21.365304813895932 4.647695627433373 0 -1 0
235 2 -0.8716673996477982 10.463487882495192 20.164220292004973 8.073464488411913 0 0 0
222 2 -0.8771124923908861 8.391592026740119 16.50109690047732 8.066952781801454 0 0 0
115 1 0.7852045103975207 8.391514680671238 21.377339800647434 9.828891637137257 0 -1 0
108 1 0.7834242517253887 10.550918896720988 17.74007122461558 9.835412481180585 0 0 0
342 2 -0.3752339651606781 8.42053124425082 18.871820132249088 11.407220538574219 0 0 0
318 2 -0.2885502147013758 8.400439074746407 16.558999466304765 14.05278410960692 0 0 0
331 2 -0.3152344184782602 10.520217899664402 20.14116617874094 14.097591724525257 0 0 0
132 1 0.7935956983192624 10.554646991816824 17.804644427906176 16.030750233872293 0 0 0
139 1 0.7804943318848742 8.353014710678204 21.489239943571 15.846916034814864 0 -1 0
294 2 -0.9096271050585016 8.318056124795444 19.025459306453637 17.61980033593837 0 0 0
6 1 0.7822497754550282 8.381877336922583 16.640321280027866 19.18972673849742 0 0 0
19 1 0.7858646032104762 10.39635549830291 20.25362473635258 19.317185244102056 0 0 0
204 2 -0.3585975818371628 10.415780244874298 17.90212307040601 21.06049234701504 0 0 0
12 1 0.7795180064577292 12.437896385900984 16.771049406658364 19.289329531169187 0 0 0
211 2 -0.3646604611871626 8.353618017973659 21.6204145762058 20.882005336317974 0 -1 0
174 2 -0.3287630468396494 8.29523169619238 19.133743637319295 23.610588176244114 0 0 0
156 2 -0.8661012342234835 10.39476174049763 17.802023491273054 27.112525223917153 0 0 -1
43 1 0.7747272965558332 10.503563166160271 20.3874499583487 25.434559945142453 0 0 0
163 2 -0.8984291147840988 8.413982548389761 21.379016464849187 27.20664084640468 0 -1 -1
71 1 0.7754160947668238 14.616581088878963 0.8254535254054057 0.46143752553594003 0 0 0
68 1 0.7948447668874722 12.478272353342822 4.408726275035914 0.444174768362185 0 0 0
72 1 0.7849142062204626 16.596374002438207 4.475454539866172 0.44659419408972895 -1 0 0
284 2 -0.3386931171300927 12.558805915843454 2.1154356620613566 2.176219384775397 0 0 0
264 2 -0.3402032559738785 14.572886965064441 3.2880067439165748 4.769051437726403 0 0 0
95 1 0.8063563652492877 14.582770891864538 0.8851389782205791 6.579813200801881 0 0 0
120 1 0.7677165714394871 14.441069629235416 3.29014123065592 9.759519400611117 0 0 0
359 2 -0.3689128243025349 14.683040182383083 0.7937882223069365 11.475065575128653 0 0 0
360 2 -0.3583172881209822 16.46101542634574 4.665756299147057 11.41766313832353 -1 0 0
332 2 -0.3238272241080828 12.487227540681655 2.130413484166871 14.10603461297511 0 0 0
144 1 0.8175008467032816 14.724301171375629 3.318903306757399 15.770310946433584 0 0 0
311 2 -0.8899104201318795 14.593863681277696 0.9475623585647089 17.419171616417554 0 0 0
308 2 -0.8857728867390051 12.528440157056293 4.4521790175789135 17.523359693541178 0 0 0
312 2 -0.9280571483691756 16.553887538302035 4.440754387061072 17.555328958301747 -1 0 0
24 1 0.8017215384734435 16.495462044226574 2.171245756675823 19.213306897674183 -1 0 0
216 2 -0.3688770793462325 14.427837202868826 3.3525919710512375 20.941740997923773 0 0 0
20 1 0.8163923233139793 12.511380761039828 2.134360050170066 19.206715392278696 0 0 0
215 2 -0.3330917175866085 12.528278699461923 -0.0828406107457198 20.976413476001913 0 1 0
191 2 -0.3609643671331998 14.579798951814412 1.0691603473272953 23.692864482038594 0 0 0
188 2 -0.3460793623152165 12.500773045908865 4.624437179272492 23.6802342621222 0 0 0
44 1 0.7826273262634698 12.514719870974702 2.178392644828337 25.464668787658887 0 0 0
168 2 -0.8726476707844673 14.637459703060488 3.3679504504852527 27.264327296593013 0 0 -1
48 1 0.7804768263048649 16.604468178929253 2.068849224280352 25.360581417318127 -1 0 0
69 1 0.8027879557797508 14.553642276021938 8.203935915447431 0.32816178837527654 0 0 0
285 2 -0.3306094438482827 14.498712138331074 5.835242889803711 2.1466345095000334 0 0 0
262 2 -0.3575629650837192 14.50175259505573 10.455234054008132 4.684047316446332 0 0 0
93 1 0.7990371845245835 14.466578277019819 8.13507590898989 6.407905586760018 0 0 0
118 1 0.7832915647430347 14.4048315321338 10.530810399970292 9.916753119004028 0 0 0
99 1 0.8067838728193746 16.57951730520683 6.902476091018696 9.690078642395374 -1 0 0
237 2 -0.8901222460308164 14.553575795113572 5.754478820629548 8.1218833444887 0 0 0
357 2 -0.3285485726185518 14.50191271092651 8.138452540955635 11.568089682802553 0 0 0
333 2 -0.3293154605145091 14.611838030786368 5.785804789651926 14.104223907180838 0 0 0
334 2 -0.3201937879446023 16.485711964346233 9.291233473230719 14.235863991342322 -1 0 0
142 1 0.7968842949882314 14.44893890510909 10.637000645577965 16.038991817806707 0 0 0
123 1 0.7764426543557565 16.543439930770695 6.926340570824449 15.964570801975658 -1 0 0
309 2 -0.8939930028342202 14.520108714552752 8.201241583441277 17.74199683634919 0 0 0
22 1 0.8100136834802735 16.61488585339458 9.35924604153415 19.33561956487633 -1 0 0
21 1 0.7803786723766896 14.571389793542382 5.69906496582381 19.289359268114215 0 0 0
213 2 -0.3135998875526944 12.592287469215403 6.986928984607112 21.1777250765059 0 0 0
214 2 -0.3629781726243872 14.588248687019659 10.429718703738217 21.059980826195908 0 0 0
189 2 -0.3444387163558483 14.64526125189649 8.170972617525324 23.679783167389377 0 0 0
166 2 -0.9010393049456031 14.651980540293389 10.595642446099808 27.14448729455402 0 0 -1
45 1 0.7886303830403666 14.541250136913586 5.774876270003524 25.321890256694793 0 0 0
165 2 -0.8735758480136621 12.521953050679345 6.940129803368452 27.123541608363638 0 0 -1
46 1 0.7999101703717799 16.62758348605892 9.404457082926202 25.465057796256996 -1 0 0
147 2 -0.8609105156312357 16.5617977364079 7.014108174316323 27.118095261023537 -1 0 -1
281 2 -0.3453537146801495 14.682822179119427 13.152253676838678 2.115246603965181 0 0 0
65 1 0.797525763168046 14.520712672858052 15.373209918267511 0.28609493485356363 0 0 0
257 2 -0.3662556300602903 12.526298340206782 14.24364454744046 4.561512212915335 0 0 0
89 1 0.795255248510519 14.714603546254596 15.166973598292023 6.291346783188394 0 0 0
233 2 -0.8834930643242643 14.643465500839994 12.886032888925655 8.083157392280025 0 0 0
113 1 0.7586344919656696 12.485693662726366 14.132760825415893 9.821515016766128 0 0 0
353 2 -0.3271770299098734 14.548684900107423 15.110122425330124 11.699818833427463 0 0 0
358 2 -0.3471054412717345 16.521480751523278 11.533944727259447 11.637812009350366 -1 0 0
329 2 -0.3426266721547506 14.459809060602483 12.987169841330049 14.278364257621522 0 0 0
121 1 0.7964970313554304 16.619359058700322 14.050146440025488 16.008068792347927 -1 0 0
310 2 -0.9011340391913257 16.577297256101506 11.715897605226125 17.65423087649353 -1 0 0
305 2 -0.8542859072954847 14.510869713214701 15.306468642536812 17.720034934196427 0 0 0
17 1 0.7917362142442684 14.557760800391064 12.840417063718785 19.473390476228687 0 0 0
209 2 -0.3608901439592721 12.490562045215182 14.24396471963065 21.003736255997563 0 0 0
190 2 -0.3519387267023996 16.53532776079404 11.78070008386988 23.732553097726253 -1 0 0
184 2 -0.3657831725104699 12.48837248650585 11.75305986228668 23.760726501542994 0 0 0
185 2 -0.3460561682482485 14.69305226392349 15.464217733827772 23.712264532437352 0 0 0
41 1 0.8015821230826302 14.568372508169507 12.931241125467952 25.504904657697917 0 0 0
145 2 -0.8972190139974491 16.569815920300627 14.205493312564105 27.04809203786115 -1 0 -1
287 2 -0.3142596054369651 14.61873948979731 20.269682504389465 2.2136719023799003 0 0 0
276 2 -0.3337055540608529 12.488698467241939 16.668855114939237 2.014590907936464 0 0 0
258 2 -0.3491889559844568 14.731733832981543 17.666762197099747 4.740938241823557 0 0 0
84 1 0.799813207927937 12.64011977490616 18.93185798576752 6.493294250678046 0 0 0