Generated by pymatgen.io.lammps.data.LammpsData

78  atoms

 2  atom types

0.000000 12.637241  xlo xhi
0.000000 9.997852  ylo yhi
0.000000 17.144600  zlo zhi
-5.772263 0.000000 0.000000  xy xz yz

Masses

1  106.42
2   78.96

Atoms

1   1  1.319200 7.148610  4.287310
2   1  3.932780 1.878130 12.446800
3   1 -2.087990 7.501030  4.443100
4   1  7.322870 2.173220 12.972200
5   1 -1.042320 4.302050  4.557720
6   1  5.515940 5.178640 12.412700
7   1  0.893838 0.751793 10.071900
8   1 -2.419170 5.451970  1.485270
9   1  9.941520 0.861745  9.638940
10  1  0.914037 4.999800  1.667770
11  1  5.981830 7.798390 10.471500
12  1 -0.054301 8.015770  1.642090
13  1  7.117920 4.395510 15.586700
14  1  4.536530 8.765360  7.330890
15  1  3.751000 4.133650 15.422900
16  1 -4.779580 8.553620  7.445010
17  1  5.546760 1.263730 15.656100
18  1 -0.683329 1.709800  6.870810
19  2  2.651930 3.424710  4.406970
20  2  1.692030 4.921490 12.378100
21  2  5.874060 0.447824  4.564800
22  2  0.068636 8.511340 11.970600
23  2  7.902850 5.058270  5.166590
24  2 -3.213240 4.953470 12.420900
25  2 -2.880100 7.185360 10.253800
26  2 -3.589380 8.800550  1.258690
27  2 -0.550604 4.648010  9.405390
28  2 -1.644270 1.644340  1.829980
29  2  1.727230 7.733750 10.594000
30  2  3.469790 7.848900  1.434630
31  2  8.849870 0.813597 16.097900
32  2  7.911090 2.138800  7.071630
33  2  5.388770 7.547960 15.299400
34  2  4.949470 5.217090  7.551320
35  2  1.805790 0.572552 15.405400
36  2  3.170840 1.460730  7.171970
37  2 -0.250244 8.429650  5.688780
38  2  5.843710 0.967667 11.395800
39  2 -2.563300 5.448600  5.899800
40  2  7.456380 4.050930 11.315200
41  2  0.863037 5.295650  5.827550
42  2  3.941900 3.846100 10.867400
43  2 -1.056280 1.737910 11.299800
44  2 -0.879259 4.144070  0.206693
45  2  4.077580 9.026590 11.385000
46  2  1.598250 6.924760  0.166185
47  2 -4.971040 8.974650 11.845200
48  2 -1.801970 7.360270 17.228400
49  2  5.329470 5.565120 16.830100
50  2  6.151590 7.510830  6.013880
51  2  3.897490 2.249980 17.133000
52  2  1.371290 0.465577  5.937610
53  2  7.281030 2.349190 17.130500
54  2 10.434800 0.384527  5.423940
55  2  2.886160 5.481520  3.088140
56  2  2.147220 2.994200 13.740700
57  2 -1.539600 9.369860  2.845650
58  2  7.335770 0.153846 14.457800
59  2 -2.746100 3.500970  3.028520
60  2  7.067360 6.344020 14.095400
61  2  3.626960 5.869750 13.684800
62  2  0.634930 3.077430  3.183880
63  2  9.028690 3.297740 14.343600
64  2 -3.899870 6.913880  2.735770
65  2  3.870640 0.221514 14.303100
66  2  1.943300 8.965260  2.777580
67  2 -3.013310 9.562040  8.944650
68  2 -2.573320 2.754640  8.150230
69  2  4.261210 6.957900  8.961880
70  2 -4.906300 6.611760  9.156680
71  2  8.320340 0.013504  8.193540
72  2  0.933675 2.705570  8.524520
73  2 -0.019477 6.267980  7.921330
74  2  5.298980 3.277800  8.882240
75  2 -0.930649 0.177459 13.080500
76  2 -0.504189 5.834480 15.680100
77  2  5.148860 3.560740  1.541730
78  2  6.022220 9.041290  4.137340

