Generated by pymatgen.io.lammps.data.LammpsData

80  atoms

 2  atom types

0.000000 12.128598  xlo xhi
0.000000 12.091064  ylo yhi
0.000000 14.084790  zlo zhi

Masses

1  106.42
2   78.96

Atoms

1   1  1.347600  1.498990  0.039694
2   1  1.224570  1.561570  7.100670
3   1  1.347610  7.544650  0.039660
4   1  1.224550  7.607100  7.100680
5   1  7.758660  1.491960  0.007342
6   1  7.380520  1.502640  7.009160
7   1  7.758670  7.537420  0.007367
8   1  7.380520  7.548180  7.009160
9   1  4.747820  1.617610 13.899200
10  1  4.236170  1.641120  7.009180
11  1  4.747910  7.663140 13.899300
12  1  4.236170  7.686650  7.009180
13  1 10.573900  1.581660  0.174358
14  1 10.440100  1.386360  7.027080
15  1 10.573900  7.627200  0.174410
16  1 10.440200  7.431890  7.027080
17  1  1.347610  4.652780  0.039687
18  1  1.224570  4.590210  7.100660
19  1  1.347600 10.698200  0.039667
20  1  1.224550 10.635700  7.100680
21  1  7.758660  4.659810  0.007345
22  1  7.380520  4.649140  7.009160
23  1  7.758670 10.705400  0.007364
24  1  7.380520 10.694700  7.009160
25  1  4.747820  4.534160 13.899300
26  1  4.236170  4.510660  7.009170
27  1  4.747900 10.579700 13.899300
28  1  4.236170 10.556200  7.009180
29  1 10.573900  4.570100  0.174348
30  1 10.440200  4.765420  7.027080
31  1 10.573900 10.615600  0.174419
32  1 10.440200 10.811000  7.027080
33  2  2.962970  3.075890  1.160120
34  2  2.596570  3.075890  8.515880
35  2  2.963100  9.121420  1.160110
36  2  2.596570  9.121420  8.515890
37  2  9.049520  3.075890  1.500160
38  2  9.107100  3.075890  8.283410
39  2  9.049560  9.121420  1.500180
40  2  9.107110  9.121420  8.283410
41  2 12.139000  1.260530  2.088750
42  2 11.926400  1.261360  9.096240
43  2 12.139000  7.306070  2.088780
44  2 11.926400  7.306890  9.096250
45  2  6.153720  1.749430  1.928890
46  2  5.817820  1.638790  8.955710
47  2  6.153770  7.794920  1.928970
48  2  5.817830  7.684330  8.955710
49  2 12.139000  4.891250  2.088740
50  2 11.926400  4.890420  9.096240
51  2 12.139000 10.936800  2.088790
52  2 11.926400 10.935900  9.096250
53  2  6.153720  4.402340  1.928880
54  2  5.817820  4.512990  8.955710
55  2  6.153770 10.447900  1.928970
56  2  5.817820 10.558500  8.955720
57  2  2.690070  1.857750  5.015760
58  2  2.911080  1.364970 12.134800
59  2  2.690060  7.903290  5.015770
60  2  2.911180  7.410620 12.134800
61  2  8.952030  1.318170  5.144190
62  2  9.209830  1.880470 12.037200
63  2  8.952040  7.363710  5.144190
64  2  9.209850  7.926000 12.037200
65  2  2.690070  4.294030  5.015760
66  2  2.911070  4.786790 12.134800
67  2  2.690060 10.339600  5.015770
68  2  2.911180 10.832200 12.134800
69  2  8.952030  4.833610  5.144190
70  2  9.209840  4.271300 12.037200
71  2  8.952030 10.879100  5.144190
72  2  9.209840 10.316800 12.037200
73  2 12.031900 12.144200  5.572880
74  2 -0.237006 12.144100 12.747100
75  2 12.031900  6.098650  5.572880
76  2 -0.237003  6.098690 12.747100
77  2  5.709710 12.144200  5.631680
78  2  6.379050  0.053155 12.769600
79  2  5.709710  6.098660  5.631680
80  2  6.379030  6.098620 12.769600

