Generated by pymatgen.io.lammps.data.LammpsData

320  atoms

  2  atom types

0.000000 24.637781  xlo xhi
0.000000 17.058433  ylo yhi
0.000000 27.370788  zlo zhi

Masses

1  208.9804
2   78.9600

Atoms

1    1  0.8052 -1.242130  2.036180  3.386640
2    1  0.7081 -1.058720 18.386400 15.111900
3    1  0.7574 -0.632369 11.459400  1.636240
4    1  0.7212 21.630900  9.396520 14.701900
5    1  0.7305 10.712300  2.336350  1.463570
6    1  0.7123  7.850320 16.435300 16.299800
7    1  0.6653 11.851800 12.071400  2.918410
8    1  0.6617  8.959270  7.127040 17.263200
9    1  0.5387  3.713340  4.546170 10.590500
10   1  0.8144  4.983150  5.388640 25.322100
11   1  0.5871  3.331610 14.126200  9.780920
12   1  0.8206  4.511090 13.907000 23.870900
13   1  0.7090 15.358200  5.682350 11.120500
14   1  0.7353 17.181200  5.654240 24.384400
15   1  0.6129 16.108800 13.330200 10.914800
16   1  0.7936 17.652900 14.037000 24.462900
17   1  0.6535  3.682280  5.085340  6.028210
18   1  0.7973  4.675200  5.367260 20.396800
19   1  0.7322  5.461830 13.811000  0.932354
20   1  0.6410  3.536670 13.953200 19.247800
21   1  0.6528 15.985200  5.214150  6.587980
22   1  0.7736 17.614900  5.192320 20.330200
23   1  0.6313 14.868200 14.146000  7.366830
24   1  0.5614 15.580100 13.900000 21.064600
25   1  0.7510 -2.240650 18.148100 10.461100
26   1  0.7890 -1.499460 18.374200 24.732900
27   1  0.7507 22.068600  8.927540 10.770100
28   1  0.7736 -0.925756  9.796090 24.586700
29   1  0.7762  9.732570  2.285170  9.439000
30   1  0.6674 11.465400 18.387400 23.797100
31   1  0.6252  9.367980  8.927580  8.766940
32   1  0.7424 11.021700 10.530000 24.373300
33   1  0.6092 -0.865041  6.941780  1.628160
34   1  0.7061 -2.103300  5.257090 14.858500
35   1  0.7196 -0.839816 14.383900  2.847010
36   1  0.6839 -1.276940 13.313800 14.824500
37   1  0.7321 10.836200  7.808120  3.051120
38   1  0.5968 10.367900  3.685550 16.324800
39   1  0.6069 10.001300 15.449200  2.404490
40   1  0.7213  6.552500 12.909700 15.594100
41   1  0.6828 21.498700  4.501010 11.207000
42   1  0.7146 -1.167220  5.761290 24.370800
43   1  0.8103 -2.418780 13.769400 10.387900
44   1  0.7890 -1.279270 13.863000 23.974000
45   1  0.6162 10.144700  6.028800 12.061300
46   1  0.7281 12.008000  4.943720 24.007800
47   1  0.6299  9.992040 14.456200 12.857600
48   1  0.6982 10.554300 14.781700 24.148300
49   1  0.8023  3.126670 13.933800  5.152750
50   1  0.7902  4.758640  1.402310 20.501200
51   1  0.6629  2.547130  6.896750  2.711050
52   1  0.7937  1.006980  7.127470 18.457400
53   1  0.7546 16.006500 17.400800  5.840550
54   1  0.6488 13.608000  3.331880 18.775700
55   1  0.7776 16.444900 10.058800  5.914710
56   1  0.7514 17.275900 10.125900 20.612300
57   1  0.6230  4.103940 17.929200 11.037900
58   1  0.8388  5.105430  1.372470 24.125800
59   1  0.5740  2.889360 10.284200  9.593840
60   1  0.8422  4.882880 10.023900 24.518400
61   1  0.7074 16.424000 17.324900 11.702000
62   1  0.6768 17.785200 18.022200 24.427500
63   1  0.7118 15.482400  9.787070 10.425400
64   1  0.6799 17.627100  9.598070 24.945100
65   1  0.6506  2.011220  7.718810 25.871200
66   1  0.7371  0.866182  6.942740 11.530900
67   1  0.8010  2.409720 16.837400  0.357754
68   1  0.7577  0.654302 16.204200 12.963400
69   1  0.7196 12.376500  8.136890 26.879200
70   1  0.7052 13.149300  7.051700 14.406400
71   1  0.7932 13.381400 16.793000 26.740800
72   1  0.7383 13.366500 16.416700 13.552900
73   1  0.7010  8.602310  7.502880 25.970500
74   1  0.7933  6.964370  5.476190 14.313100
75   1  0.6251  7.447590 16.245700 26.407200
76   1  0.4847  6.020160 15.071800 12.683300
77   1  0.7082 20.424600  8.090840 26.701100
78   1  0.8133 18.422000  7.961500 13.299000
79   1  0.6906 20.526400 16.999100  0.015340
80   1  0.7937 18.750600 15.977100 13.907900
81   1  0.7659  1.357780  3.785200 26.513800
82   1  0.6203  0.469381  3.455600 12.124300
83   1  0.7988  2.078230 12.025100 26.528000
84   1  0.6481  2.268510 13.022500 13.483800
85   1  0.6704 15.244800  3.374010 26.105500
86   1  0.6751 13.567900  2.824280 13.542900
87   1  0.7111 13.988100 12.001700 27.030200
88   1  0.4974 10.107200  9.025270 12.668800
89   1  0.6825  8.849190  2.860170 25.625900
90   1  0.5520  7.494880 18.177000 12.606100
91   1  0.7157  8.035760 11.619700 26.184300
92   1  0.5478  8.467580 11.376500 11.397300
93   1  0.6565 20.207100  3.496410 27.115400
94   1  0.8535 17.910800  3.675040 13.597400
95   1  0.7135 20.818500 13.027000 26.360100
96   1  0.7081 19.317100 11.384300 12.225000
97   1  0.7913  0.205889  8.565910  6.714510
98   1  0.7841  2.183200  7.558660 22.442000
99   1  0.7566  0.080422 16.957700  6.961980
100  1  0.6935  2.108830 16.427500 22.873200
101  1  0.6115 12.556600  6.883530  7.857660
102  1  0.8697 14.448300  8.512210 22.901000
103  1  0.7059 12.582100 15.980600  9.565480
104  1  0.6178 14.156400 16.238900 22.231100
105  1  0.6359  5.501200  7.709430  7.520030
106  1  0.7283  8.625990  7.065710 21.272700
107  1  0.7614  8.646600 15.617100  9.165500
108  1  0.7489  8.275540 15.858800 21.215800
109  1  0.7414 19.384300  7.014320  8.849570
110  1  0.6713 20.121900  7.955160 22.172600
111  1  0.7761 19.380300 16.422400  9.023760
112  1  0.6042 16.747500 18.385800 20.761900
113  1  0.6711  1.165570  3.472000  8.172040
114  1  0.7954  1.485720  2.979010 22.538700
115  1  0.5767  0.196796 11.830600  8.610170
116  1  0.7199  1.915950 12.051000 21.863500
117  1  0.6085 13.219100  3.153500  8.321630
118  1  0.5954 14.521800  3.873650 22.451400
119  1  0.6628 13.098700 10.594800  7.502170
120  1  0.6199 14.028600 12.427900 23.075000
121  1  0.7127  7.263840  4.693330  8.076310
122  1  0.7449  8.613460  3.560540 20.949800
123  1  0.6700  6.217740 11.554300  7.985470
124  1  0.7818  8.004780 12.384600 21.805200
125  1  0.6579 19.294200  3.615670  8.673940
126  1  0.7870 20.525000  3.646380 22.326200
127  1  0.6514 18.879000 12.217100  8.757580
128  1  0.8469 20.082300 12.189300 22.469600
129  2 -0.5642  7.189380  4.289650 11.582800
130  2 -0.6185  8.078240  4.918760 23.190600
131  2 -0.8033  6.760790 13.393400  9.978990
132  2 -0.7128  7.773460 13.769100 23.975900
133  2 -0.6988 18.453900  5.341490 11.755100
134  2 -0.7647 20.025600  5.588950 24.686000
135  2 -0.8070 19.686900 13.827100 10.702600
136  2 -0.7322 20.266100 14.359500 24.214700
137  2 -0.7203 -0.300183  4.895080 10.227100
138  2 -0.7938  1.968350  5.731450 24.132900
139  2 -0.6455  0.230178 14.347300 10.021300
140  2 -0.7253  1.630770 13.555000 24.225400
141  2 -0.7021 12.938200  4.626490 10.681900
142  2 -0.7260 14.638500  6.010800 24.571200
143  2 -0.4772 13.260800 13.999700 12.513000
144  2 -0.6966 13.640100 14.828400 24.726400
145  2 -0.0664 17.908000  6.304590  2.471580
146  2 -0.5941  1.793480  5.530530 20.684400
147  2 -0.4615 13.231200 16.643200  5.940880
148  2 -0.2120 -2.301060 15.668400 16.768700
149  2 -0.0245  6.748420  9.310590  2.423980
150  2 -0.0948 15.634100  7.581020 16.115100
151  2 -0.3278  7.528430 12.584900  2.687580
152  2 -0.2221 10.744700  8.784950 20.079400
153  2 -0.4436  2.807480  9.421700  1.465890
154  2 -0.2849 -0.769695  9.158690 18.322700
155  2 -0.3572 20.634900 14.419800  1.467130
156  2 -0.3799  4.119370 11.992100 17.012800
157  2 -0.3325  3.036930  9.219310  5.100760
158  2  0.0507 15.225300  9.809660 16.492800
159  2 -0.3271 13.074500 16.936800  2.516740
160  2 -0.3155  6.348760  3.161830 15.810700
161  2 -0.4483  7.450310  1.456610  8.552830
162  2 -0.6475  7.705330 17.584700 23.937000
163  2 -0.6279  7.273890  8.445890 10.580000
164  2 -0.6218  7.908160  9.811740 23.986700
165  2 -0.6795 18.959200 18.084400 11.124000
166  2 -0.7514 20.605700  1.896020 24.852000
167  2 -0.7837 19.361100  9.306210 10.605300
168  2 -0.7618 20.550900 10.049800 24.357300
169  2 -0.7017  0.508475 18.075600 10.753200
170  2 -0.7041  2.296590  1.687000 25.021800
171  2 -0.6226 -0.528092  8.199030  9.237050
172  2 -0.8184  2.164730  9.751510 24.249800
173  2 -0.6563 13.327300 18.022800 11.080600
174  2 -0.8058 14.677600 18.352100 23.757000
175  2 -0.7966 12.203200  9.113080  9.540980
176  2 -0.7899 13.669600 10.397200 24.950300
177  2 -0.0246  6.907220  3.500970  3.691930
178  2 -0.3058  0.001000  3.918230 16.656500
179  2 -0.1430  4.926420 11.375300  4.647270
180  2 -0.1710 15.724000 16.053800 17.264700
181  2 -0.0896 16.346200  5.473150  1.786760
182  2 -0.4308 12.573100  6.156160 16.872500
183  2 -0.0272 17.078900 11.435700  2.763900
184  2 -0.2657 16.407800 13.106400 18.705100
185  2 -0.6052 14.259500 11.590200  5.317090
186  2 -0.2415  4.857250  6.339650 15.684400
187  2 -0.1111  8.831290  2.765560  4.633500
188  2 -0.1976  2.992530  3.338720 18.659800
189  2 -0.1097 21.881900  8.011360  4.359120
190  2 -0.5766 14.537600 10.147700 21.191100
191  2 -0.1205 19.520300 14.485800  5.741650
192  2 -0.4422 11.096900  1.472520 18.179700
193  2 -0.4569  6.421710  5.918810  5.643200
194  2 -0.3457  0.183095  7.516180 15.441400
195  2 -0.7076  2.871620 11.925100  7.453080
196  2 -0.3137  0.556602 14.163500 20.150300
197  2 -0.2368 12.534800  4.641420  2.116210
198  2 -0.3361 14.959700  5.878460 19.647200
199  2 -0.2431  9.228870 14.338700  5.588940
200  2 -0.5402 10.866500 12.468600 21.976000
201  2 -0.4486  0.041576  9.716040  3.587390
202  2 -0.7277  7.313320  5.332240 19.404100
203  2  0.0053  5.608610 18.088600  5.800390
204  2 -0.5110  7.694630 14.054200 17.647100
205  2 -0.2336 18.624400  7.358270  5.464830
206  2 -0.3953 21.011500  5.449280 20.081600
207  2 -0.2489 21.742000 16.165400  4.294030
208  2 -0.0282 19.099400 14.848300 19.126500
209  2 -0.7619 21.943100  7.138860 12.747600
210  2 -0.8409 -1.452050  8.711670 26.655500
211  2 -0.6330 -2.034290 15.910500 12.397200
212  2 -0.5699 -1.137050 16.905500  0.691249
213  2 -0.8166  9.490350  6.625850 14.809100
214  2 -0.7534 10.542000  9.921790 27.080200
215  2  0.0548 12.789200 11.088700 18.288200
216  2 -0.7603 10.506800 17.055000 26.801300
217  2 -0.8151 -2.346300  2.943000 13.233900
218  2 -0.7378 -1.258290  3.622320 26.156000
219  2 -0.8056 -2.321970 11.294800 12.310400
220  2 -0.7682 -0.901277 12.692400 26.979800
221  2 -0.5705 10.433500  3.549800 13.113600
222  2 -0.7296 12.073700  3.129710 26.004400
223  2 -0.4765  9.497750 12.548700 14.820100
224  2 -0.6623 10.264400 13.563000 27.281900
225  2 -0.5994  2.495540 13.990600  1.078900
226  2 -0.4953 -0.970809 16.140700 22.805300
227  2 -0.3634  2.268850  2.453280  1.696420
228  2 -0.4450 20.176500 10.716100 20.425000
229  2 -0.3197 15.808000  1.521900  0.775706
230  2 -0.5401 10.424900 16.879300 14.520800
231  2 -0.4882 14.319400  7.297310  5.441730
232  2 -0.2077 13.850900 10.967400 13.212000
233  2 -0.0721  6.433800 16.451100  5.748240
234  2 -0.5742  5.469840 15.878900 15.274800
235  2 -0.4892  9.141840  4.939110  0.544142
236  2 -0.0144  4.532670  8.584240 14.760900
237  2 -0.4348 20.266800  1.706040  2.012090
238  2 -0.2883 19.718400 18.059100 15.398300
239  2 -0.3223 21.179500 10.876500  1.421070
240  2 -0.5037 19.178000 10.042300 14.974500
241  2 -0.7072  2.990400  7.288610  8.695060
242  2 -0.5869  5.123030  6.800460 22.391500
243  2 -0.4175  3.095980 16.214700  7.003440
244  2 -0.7593  4.879880 15.995800 21.775100
245  2 -0.7340 16.645800  7.004200  8.903810
246  2 -0.7864 17.054800  7.494910 22.389900
247  2 -0.7963 15.983400 16.024900  9.320720
248  2 -0.6565 17.522700 16.109500 22.233800
249  2 -0.6532  4.620200  3.072880  8.341680
250  2 -0.6800  4.619630  3.435310 22.713800
251  2 -0.2944 -2.200960 10.963300  6.629120
252  2 -0.7088  4.762370 11.826700 22.363900
253  2 -0.6763 16.888200  2.763170  8.814960
254  2 -0.9400 17.410900  3.717820 22.368000
255  2 -0.8989 15.944900 11.925400  8.612980
256  2 -0.8785 17.388800 12.059100 22.762600
257  2 -0.0322  6.434560  7.598870  3.442590
258  2 -0.1481 13.075000  6.921330 20.236700
259  2 -0.4656  6.526740  2.495020 26.809600
260  2 -0.5307  1.135830 14.981500 15.321400
261  2 -0.0456 21.455400  5.851770  5.087100
262  2 -0.3682 19.118300  4.870760 15.274000
263  2 -0.1085 17.453400 14.268600  4.624340
264  2 -0.3424 19.686500 13.804700 14.922700
265  2 -0.4079  5.008710 15.680400  2.739400
266  2 -0.2880  1.975900  4.934820 14.481500
267  2 -0.5053 -1.300210  4.643300  2.770510
268  2  0.0184 22.115700 17.911700 19.754200
269  2 -0.4008 13.747100  9.259180  2.090770
270  2 -0.4023 16.421100  3.233660 18.038100
271  2 -0.4248 10.513200 10.624900  4.783120
272  2  0.0755 13.210700 12.705100 16.837000
273  2 -0.5098 -1.185810  2.236060  7.469720
274  2 -0.5371 -1.272640  3.513700 22.756700
275  2 -0.4927  0.293604 13.831600  5.816930
276  2 -0.4622 -1.105790 11.881300 22.231000
277  2 -0.6496  9.799400  5.966560  8.464870
278  2 -0.7738 11.430100  3.432090 21.928600
279  2 -0.6110 10.234500 13.332200  9.974530
280  2 -0.3312  7.257310  9.973040 19.513200
281  2 -0.4395 21.515900  5.349150  8.266970
282  2 -0.5371 -0.576795  8.253860 22.293100
283  2 -0.5527 21.751400 16.025800  8.711410
284  2 -0.0418 20.319800 15.534500 20.686700
285  2 -0.4127  7.392350  9.303350  6.317440
286  2 -0.6832 11.312300  7.671160 24.296900
287  2 -0.7047  9.983110 17.071800 11.051400
288  2 -0.6198 11.521200 15.720100 21.785500
289  2 -0.3939 10.261300 17.548500  7.521930
290  2 -0.6046  7.263970 17.967900 19.930700
291  2 -0.2913 10.897700  5.482780  4.861150
292  2 -0.0496  2.478030  1.824300 15.843300
293  2 -0.3574 18.705200 18.148400  5.766760
294  2 -0.1090 21.937900  2.576180 18.580300
295  2 -0.3146 19.330900 10.509700  6.405400
296  2 -0.2218 18.693500  7.310940 18.052800
297  2 -0.4533  1.030140 16.695700  3.451050
298  2 -0.4820  1.799850 17.928300 20.646800
299  2 -0.5506  1.151160  5.022610  5.492920
300  2 -0.3369  0.532540 10.875300 15.508600
301  2 -0.2915 14.335300  3.422480  4.679100
302  2 -0.1620 13.316700 16.157500 17.281300
303  2 -0.2207 14.882700 13.929400  2.593380
304  2 -0.2698 11.594600  9.301590 15.497600
305  2 -0.4223  4.262290  2.390830 13.241400
306  2 -0.6283  3.380750  5.500980  0.006747
307  2 -0.4779  5.245540 11.520900 12.888800
308  2 -0.7226  4.795770 12.101000 25.996000
309  2 -0.5220 15.231200  4.719400 14.549900
310  2 -0.4338 17.211200  7.457350 26.842600
311  2 -0.3248 16.500500 13.109700 13.760000
312  2 -0.4978 17.310500 12.004800 26.393900
313  2 -0.3864  2.969340  8.805080 11.952200
314  2 -0.4776  6.034780  8.058250 26.663600
315  2 -0.7490  3.223920 15.710500 12.275900
316  2 -0.6740  4.598250 16.228900 25.420200
317  2 -0.6283 16.142800  8.238000 12.327400
318  2 -0.0200 17.715400  9.604560  1.748040
319  2 -0.6115 16.263100 17.898200 14.125400
320  2 -0.4736 16.468000 16.198000 26.026700

