Generated by pymatgen.io.lammps.data.LammpsData

320  atoms

  2  atom types

0.000000 16.864293  xlo xhi
0.000000 23.165087  ylo yhi
0.000000 24.472453  zlo zhi

Masses

1  208.9804
2   78.9600

Atoms

1    1  0.8572  0.861476 11.369300 10.626800
2    1  0.8083  1.289670 11.210400 23.034100
3    1  0.8453  1.160120 23.072400 10.304300
4    1  0.8112  0.999365 21.809900 22.757300
5    1  0.8299  4.906330 11.271000 10.987800
6    1  0.7371  5.402990 11.077900 23.196900
7    1  0.8627  4.931280 22.869900 11.047600
8    1  0.8448  5.177690 22.735700 23.262800
9    1  0.7657  9.172030 11.279600 11.005400
10   1  0.8381  9.219700 11.358000 23.037900
11   1  0.8033  9.094970 22.709900 10.753600
12   1  0.7985  9.231570 22.993800 23.646500
13   1  0.8178 13.730300 11.427000 10.607800
14   1  0.7879 13.709700 10.460300 22.558700
15   1  0.8519 13.189200 23.536400 10.650300
16   1  0.7778 13.077500 23.304400 22.938200
17   1  0.7774  2.762200  0.227460  1.569460
18   1  0.8764  3.089280  0.433426 14.154500
19   1  0.7828  3.492750 12.165000  2.084210
20   1  0.8629  3.112670 12.464100 14.366600
21   1  0.7855  6.765350  0.860966  2.417780
22   1  0.8364  7.131370  0.633919 14.352500
23   1  0.8138  7.220420 11.817100  2.476250
24   1  0.8166  7.376340 11.676200 15.429200
25   1  0.7549 11.215500  0.204462  2.334030
26   1  0.8823 11.687200  0.509327 14.656400
27   1  0.8524 11.533800 11.806100  2.895410
28   1  0.7907 11.601700 11.392900 15.026800
29   1  0.8733 15.316500  0.574087  1.807980
30   1  0.8393 15.582500  0.049304 14.095500
31   1  0.8141 15.956200 12.150300  1.710440
32   1  0.7788 15.402300 12.232500 14.600200
33   1  0.8180  2.979540  5.589300  8.777030
34   1  0.8006  2.762820  5.084110 20.532100
35   1  0.8796  3.019610 17.559300  8.024970
36   1  0.8593  2.826760 17.559300 20.598900
37   1  0.8152  7.684180  5.397930  8.329420
38   1  0.8612  6.908500  5.127740 20.321200
39   1  0.8152  6.932990 16.536900  8.171330
40   1  0.8573  7.349920 17.217200 21.276400
41   1  0.8579 11.841400  5.752690  8.901670
42   1  0.8224 11.212300  5.114240 20.607000
43   1  0.8584 11.629200 17.257300  9.087260
44   1  0.8530 11.482100 17.112200 20.823100
45   1  0.8234 15.780500  5.434230  8.522640
46   1  0.8095 15.628000  5.293530 20.162300
47   1  0.7240 15.927800 16.929400  8.704930
48   1  0.7888 15.349600 17.141000 20.806400
49   1  0.8624  0.846041  6.324210  4.181470
50   1  0.7923  1.078420  5.786900 16.658200
51   1  0.8365  0.587263 18.194600  4.826540
52   1  0.8202  1.158860 17.841300 16.559400
53   1  0.8296  5.451820  6.225920  5.284500
54   1  0.8045  4.829380  5.956990 16.860700
55   1  0.8594  4.908860 18.096100  4.800730
56   1  0.8525  5.326370 18.144700 16.861000
57   1  0.8027  9.724250  6.188880  4.711550
58   1  0.8363  9.010710  6.094120 16.783200
59   1  0.8196  9.402750 18.260700  4.861640
60   1  0.8522  9.418070 17.572900 17.407800
61   1  0.8103 13.859400  6.562200  4.379580
62   1  0.7894 13.605300  6.643570 16.340000
63   1  0.8158 13.161900 18.000400  4.637940
64   1  0.8270 13.610200 17.780300 17.167500
65   1  0.8273  0.958117  2.384670  6.126030
66   1  0.8478  0.911818  1.450800 18.515400
67   1  0.7888  0.572245 14.018700  6.378840
68   1  0.8293  0.253274 13.498200 18.461200
69   1  0.7854  4.614460  1.956360  6.197040
70   1  0.8418  4.707670  2.097930 18.660900
71   1  0.8040  4.637090 13.576500  6.145840
72   1  0.8515  4.904680 13.916000 18.770800
73   1  0.8498  9.539160  2.205530  6.446820
74   1  0.7688  9.020170  2.337960 18.785700
75   1  0.8496  9.082520 13.471600  5.715430
76   1  0.7841  9.159510 13.441100 18.262800
77   1  0.8945 13.979200  2.136280  6.931640
78   1  0.8497 13.060500  1.737590 18.550400
79   1  0.8352 13.657900 14.266800  6.370480
80   1  0.7591 13.314700 13.604800 18.356000
81   1  0.8056  3.045250  9.468470  6.775570
82   1  0.8074  2.917870  9.509500 19.645500
83   1  0.8530  2.699010 21.477300  6.208700
84   1  0.8505  3.262910 20.810900 18.683900
85   1  0.7590  7.809540  9.286890  6.627620
86   1  0.8584  7.202910  9.746440 19.316900
87   1  0.8590  7.090810 21.046100  7.070030
88   1  0.8206  7.457450 21.188200 18.841700
89   1  0.7449 11.488500  9.894990  6.461920
90   1  0.8264 11.101200  9.060660 19.208600
91   1  0.8178 11.221000 21.238000  7.061870
92   1  0.8336 11.508800 21.130500 19.125300
93   1  0.7682 15.463200  9.934690  6.582400
94   1  0.7806 15.846500  9.737760 18.963200
95   1  0.8557 15.453200 21.202300  7.535330
96   1  0.7822 15.676900 21.193400 18.422400
97   1  0.7538  2.939140  7.440280 13.169400
98   1  0.8833  3.072310  7.881020  0.708534
99   1  0.8349  3.530590 19.485300 12.758800
100  1  0.8353  3.001830 19.435400  0.732385
101  1  0.8159  7.380190  7.520800 13.074300
102  1  0.8172  7.243870  7.848060  0.285850
103  1  0.8606  7.602400 19.156600 13.227400
104  1  0.8584  7.192030 19.319800  0.973201
105  1  0.8182 11.141600  7.998830 12.661200
106  1  0.8322 11.364400  7.998720  0.239776
107  1  0.8310 11.607700 19.533000 12.475800
108  1  0.8178 11.480700 19.083800  1.290150
109  1  0.8048 15.575700  7.712660 13.204600
110  1  0.8276 15.298300  7.894430  0.924830
111  1  0.7892 15.929600 19.535400 12.848300
112  1  0.8076 15.331200 19.100900  0.188470
113  1  0.8446  0.406853  3.982960 24.860600
114  1  0.8558  1.048170  3.986990 12.152000
115  1  0.8441  0.927842 15.481700  0.653146
116  1  0.8620  0.950418 15.713600 12.749000
117  1  0.8073  5.024820  4.060900  0.188751
118  1  0.7839  5.237920  3.826350 12.650700
119  1  0.8399  5.387190 15.724700  0.538451
120  1  0.8462  5.163760 15.447800 12.747700
121  1  0.8600  8.996290  3.500520  0.463920
122  1  0.7971  9.061370  3.963030 12.423600
123  1  0.8256  9.475150 15.293600 24.202600
124  1  0.8101  9.448660 15.332200 12.255000
125  1  0.7850 13.235400  3.955680  0.574039
126  1  0.8515 13.197600  4.028580 12.275900
127  1  0.7502 13.422200 15.427000  0.409230
128  1  0.8332 13.660900 15.557000 12.351100
129  2 -0.5119  1.195930  3.415000  9.073160
130  2 -0.4795  0.701935  3.514240 21.494600
131  2 -0.5245  1.403370 15.454000  8.878310
132  2 -0.3595  0.725654 15.080700 21.333900
133  2 -0.4502  5.107640  3.539330  9.177800
134  2 -0.5549  4.966370  3.252820 21.189300
135  2 -0.4432  4.787410 15.136000  9.148520
136  2 -0.4230  5.213640 15.250100 21.568500
137  2 -0.5418  9.654280  3.660490  9.093210
138  2 -0.5101  8.865450  3.530590 21.228900
139  2 -0.4506  9.785310 15.206200  9.164220
140  2 -0.5489  9.249070 15.282600 21.334300
141  2 -0.6215 13.866000  3.552060  9.136380
142  2 -0.5255 13.333300  3.383040 20.831100
143  2 -0.5627 13.402400 15.307600  9.190070
144  2 -0.5002 13.212100 15.062900 21.179600
145  2 -0.4173  3.421230  7.999430  4.247270
146  2 -0.4371  3.134880  8.188160 16.388500
147  2 -0.5746  2.538330 19.946800  4.080260
148  2 -0.5957  3.282010 19.857600 16.037500
149  2 -0.4934  7.214570  8.371170  4.211560
150  2 -0.4517  7.172000  7.948510 16.156600
151  2 -0.5205  7.166380 19.628400  4.094330
152  2 -0.5871  7.494130 19.405000 16.303900
153  2 -0.5483 11.805700  8.010700  3.355410
154  2 -0.4914 10.851400  8.205460 16.498500
155  2 -0.5858 11.373900 20.047600  3.853090
156  2 -0.4643 11.449300 19.556600 16.339900
157  2 -0.5855 16.012300  8.304100  3.753810
158  2 -0.5633 15.893900  8.273700 15.782300
159  2 -0.3804 15.578300 20.177000  4.231470
160  2 -0.5734 15.656600 19.840200 15.924100
161  2 -0.5164  2.747120  9.494470 10.788300
162  2 -0.6053  3.279920  9.153020 22.468000
163  2 -0.4465  3.412320 20.856900  9.842080
164  2 -0.5324  3.604720 20.523000 22.553700
165  2 -0.4714  7.172940  9.506840 10.052600
166  2 -0.5942  7.462530  9.084100 22.278500
167  2 -0.4869  6.918740 20.981400 10.186200
168  2 -0.4435  7.139470 20.918900 22.769200
169  2 -0.5109 11.438500  9.456770 10.295400
170  2 -0.5908 11.236000  8.987540 22.170700
171  2 -0.5867 11.303800 21.073700 10.069600
172  2 -0.4299 11.108600 21.043400 22.649600
173  2 -0.5065 15.934500  9.479590 10.200200
174  2 -0.4970 15.997000  8.822980 22.168200
175  2 -0.5151 15.443600 21.171600 10.480600
176  2 -0.4872 15.254600 20.836000 22.200400
177  2 -0.5432  0.493429  2.146330  2.530220
178  2 -0.4478  0.507593  1.830170 14.625000
179  2 -0.5485  1.132360 13.734300  2.869930
180  2 -0.5316  0.780957 14.095400 15.185400
181  2 -0.6117  4.858140  2.651220  2.663130
182  2 -0.5397  4.968970  2.341740 14.984100
183  2 -0.5550  5.262920 14.128000  2.973370
184  2 -0.5166  5.061250 13.878200 15.592000
185  2 -0.5634  8.913110  2.518060  3.083810
186  2 -0.4957  9.453390  2.134360 15.088400
187  2 -0.4645  9.465810 14.018000  2.541820
188  2 -0.4855  9.585060 13.843400 15.090300
189  2 -0.5330 13.346500  2.099930  2.850550
190  2 -0.4227 13.592000  2.199750 15.310300
191  2 -0.5056 13.943400 13.945700  2.903620
192  2 -0.5466 13.625700 14.119700 15.290800
193  2 -0.4691  0.963618 11.124500  5.056880
194  2 -0.5266  0.715891 11.016400 17.411800
195  2 -0.4518  0.542865 23.019300  5.205280
196  2 -0.5373  1.276880 22.450000 17.059100
197  2 -0.4697  5.150730 11.062400  5.066450
198  2 -0.4526  5.383700 10.913500 17.499600
199  2 -0.4766  5.271790 22.350800  4.745610
200  2 -0.4978  4.937040 23.084800 17.286200
201  2 -0.6298  9.390320 11.037000  4.450040
202  2 -0.5926  9.071780 10.719000 17.637600
203  2 -0.4602  9.088530 22.452900  5.155150
204  2 -0.5042  9.447270 22.316700 17.371500
205  2 -0.5856 13.384200 11.023300  4.879910
206  2 -0.5591 13.421300 10.570800 17.072200
207  2 -0.4210 13.598500 22.513100  5.808470
208  2 -0.5750 13.338100 22.427200 17.131400
209  2 -0.5755  2.717600  0.593558  7.842760
210  2 -0.4978  3.012160 -0.029747 20.479700
211  2 -0.4592  3.026780 12.349300  8.326780
212  2 -0.4697  2.650520 12.623200 20.075500
213  2 -0.4480  6.679090  0.567813  7.861550
214  2 -0.4344  7.319200  0.401947 20.561700
215  2 -0.4732  6.949140 12.212800  7.734260
216  2 -0.5499  7.078600 12.238400 20.484300
217  2 -0.5701 11.417500  0.785484  8.326820
218  2 -0.5457 11.339200  0.550256 20.273000
219  2 -0.5137 11.269700 12.596400  7.288270
220  2 -0.4802 11.358400 12.219300 20.047000
221  2 -0.5328 15.828700  0.827395  8.322590
222  2 -0.5150 15.629200  0.370239 19.963600
223  2 -0.5868 15.734300 12.573300  8.015990
224  2 -0.5575 15.410200 12.134900 20.389200
225  2 -0.4950  2.311410  5.487340  2.026790
226  2 -0.6373  2.885400  4.830950 14.227800
227  2 -0.5184  3.090800 16.859500  2.080040
228  2 -0.5739  3.006370 16.722500 14.266600
229  2 -0.4997  5.699900  6.280810  1.836640
230  2 -0.6516  7.259560  5.190220 14.253400
231  2 -0.5119  7.332420 16.627600  2.048180
232  2 -0.4717  7.281300 16.482500 14.479500
233  2 -0.5099 11.071500  4.902930  2.008380
234  2 -0.5313 11.080600  4.923180 14.046500
235  2 -0.6205 11.562500 16.744700  2.145460
236  2 -0.4867 11.420500 16.790500 13.674900
237  2 -0.6250 15.275000  5.332690  2.166580
238  2 -0.5247 15.415500  4.835600 13.707500
239  2 -0.5896 15.694900 17.218400  1.936320
240  2 -0.5601 15.662500 16.898300 13.939600
241  2 -0.5774  0.891294  6.452360 10.944700
242  2 -0.4533  0.880471  6.759220 23.931500
243  2 -0.5212  1.410050 18.086700 11.201900
244  2 -0.5805  1.286960 18.055600 23.517200
245  2 -0.5171  5.445000  6.725420 11.103900
246  2 -0.4401  5.201860  6.590310 22.478300
247  2 -0.5347  5.563700 17.910700 11.700800
248  2 -0.5397  5.462890 18.173900 23.652600
249  2 -0.5819  9.304360  6.799980 10.967600
250  2 -0.4800  9.106830  5.859850 23.527400
251  2 -0.5239  9.058520 18.056300 11.179000
252  2 -0.5161  9.712610 18.245200 23.766900
253  2 -0.5674 13.559900  6.655000 11.269800
254  2 -0.5409 13.407200  6.406840 23.390400
255  2 -0.5792 13.612100 18.382600 10.801200
256  2 -0.5849 13.558400 17.987900 22.849500
257  2 -0.6169  0.869784  9.915470  0.833068
258  2 -0.5012  0.931736 10.613000 13.508800
259  2 -0.6306  0.671221 21.477000  0.832501
260  2 -0.6365  1.506800 21.754100 12.774700
261  2 -0.6457  5.219180  9.966230  1.539400
262  2 -0.4941  5.044470 10.247400 13.916600
263  2 -0.6430  4.990710 21.482600  1.380030
264  2 -0.6707  5.199560 21.934700 13.514000
265  2 -0.5853  9.665980  9.966520  1.257530
266  2 -0.6068  9.347860  9.842120 14.045000
267  2 -0.6025  9.029360 21.756900  1.728230
268  2 -0.5593  9.048570 21.529400 13.568800
269  2 -0.6236 13.527700 10.168100  0.887806
270  2 -0.6219 13.235800  9.758070 13.459100
271  2 -0.5926 13.387100 21.602100  1.298460
272  2 -0.6297 13.260900 21.963400 12.998400
273  2 -0.6060  2.998470  2.115500 11.601000
274  2 -0.5665  3.044600  1.517750 23.795400
275  2 -0.5797  2.988430 13.396700 11.761200
276  2 -0.5738  3.131780 13.321300 23.836200
277  2 -0.6326  7.028920  1.352530 11.383300
278  2 -0.6489  7.186640  2.073270 23.967200
279  2 -0.6063  6.959680 13.261800 12.357600
280  2 -0.6428  7.407240 13.047300 23.993800
281  2 -0.6371 11.345100  1.975510 12.069300
282  2 -0.6488 10.961900  2.160300 23.650200
283  2 -0.5537 11.763100 13.029900 11.504300
284  2 -0.5014 11.297900 13.172600 23.732000
285  2 -0.5113 15.531700  1.631670 11.605100
286  2 -0.5679 15.630200  1.612090 23.834300
287  2 -0.6053 15.730400 13.755000 11.677400
288  2 -0.5450 16.406700 13.434700 23.673400
289  2 -0.6050  3.033300  4.565660  5.894860
290  2 -0.6851  2.360670  3.790010 17.821800
291  2 -0.6661  2.980340 16.411300  5.695060
292  2 -0.5249  3.057100 16.043800 18.091000
293  2 -0.6377  7.681010  4.201130  5.896250
294  2 -0.6810  6.599320  3.970960 17.692500
295  2 -0.5886  7.330890 15.571600  5.693710
296  2 -0.5718  7.046820 16.022100 18.157400
297  2 -0.4927 11.601800  4.266370  5.800670
298  2 -0.5480 11.431900  4.111040 17.713100
299  2 -0.5290 11.454100 16.171300  6.062380
300  2 -0.6198 11.259200 15.873900 17.591100
301  2 -0.5967 15.567500  3.933780  5.642860
302  2 -0.4711 15.621900  3.958620 17.341000
303  2 -0.6679 15.504900 16.032400  5.468090
304  2 -0.6053 15.915600 16.084000 17.907700
305  2 -0.5877  1.043630  7.023730  7.047620
306  2 -0.6388  0.980798  6.942040 19.433900
307  2 -0.6710  1.009960 19.515000  7.472570
308  2 -0.7128  1.328920 19.120400 19.309700
309  2 -0.5881  5.468730  7.559200  7.628720
310  2 -0.5646  4.926740  7.322100 19.255400
311  2 -0.6704  5.049980 19.065800  7.129630
312  2 -0.6440  5.361030 18.998200 19.413100
313  2 -0.6638 10.151800  7.025990  7.270910
314  2 -0.6125  8.939940  6.882500 19.505700
315  2 -0.5908  9.022940 18.729500  7.629100
316  2 -0.6162  9.322260 18.749400 20.252600
317  2 -0.5816 13.754000  7.429110  7.499470
318  2 -0.6088 13.429700  7.276210 19.090400
319  2 -0.6220 13.173200 19.300000  7.196850
320  2 -0.6783 13.353100 18.871300 19.554800

