Generated by pymatgen.io.lammps.data.LammpsData

320  atoms

  2  atom types

0.000000 16.864293  xlo xhi
0.000000 23.165087  ylo yhi
0.000000 24.472453  zlo zhi

Masses

1  208.9804
2   78.9600

Atoms

1    1  0.6864  5.438290 12.958200  5.631790
2    1  0.7071 10.547500  9.713190 24.012200
3    1  0.6839  1.085170  4.147070 15.966200
4    1  0.7354  3.443630  4.013060 19.630600
5    1  0.6733  5.648650 14.203200 13.688900
6    1  0.7131  4.399150 13.342100 17.227800
7    1  0.8413  3.709700 18.271000 14.992600
8    1  0.7075  2.555460  6.856480 18.062800
9    1  0.7875 12.375000 10.417900 11.161900
10   1  0.7937  4.924700 12.275500 22.791400
11   1  0.6456 11.952600  2.109000 11.384600
12   1  0.7630 14.959000  0.303736  0.871826
13   1  0.5882 15.788900  9.315440  3.624070
14   1  0.8999  6.347410  7.631760 21.361100
15   1  0.6960  2.758660 20.721200 12.395000
16   1  0.6832  1.785520  1.603760 21.283800
17   1  0.8572  6.178030 21.892300  6.132590
18   1  0.7134 15.137400  7.117140  9.991530
19   1  0.7861  6.871850  8.244100  0.991175
20   1  0.7992  2.637630  0.683020 10.150800
21   1  0.8288  6.596540  1.856030 10.053700
22   1  0.6804 15.033900 22.149400 21.547000
23   1  0.7473 11.342400  9.717990  3.400830
24   1  0.6975  3.657710 12.587400 11.360000
25   1  0.6521  6.819360  3.614950  5.381500
26   1  0.7874 15.721100 21.265100 13.642900
27   1  0.7468 11.730600 13.768200  8.401500
28   1  0.8722  5.756440 10.107300 13.531100
29   1  0.8186 16.191000  4.690710 21.374900
30   1  0.7028  5.575090 22.318200 13.013700
31   1  0.6593  1.344840  7.594700  1.812140
32   1  0.4766 15.976100  3.473530  7.372950
33   1  0.8206  1.441970  8.992150  7.032110
34   1  0.5243  1.727420 21.087500 20.371600
35   1  0.8594  1.581700 14.566100  8.883300
36   1  0.6346  0.683462 20.557500  0.179145
37   1  0.7487  2.256130  0.588518  6.668270
38   1  0.8417  7.652250 10.933900 20.632200
39   1  0.8166  9.788820 15.840100 11.849400
40   1  0.6267  3.508400 20.748200  3.147760
41   1  0.7792 12.255600 21.528000 11.577200
42   1  0.7484  1.330980  7.525030 14.020000
43   1  0.7116  7.191770 22.097700 17.157200
44   1  0.6934  6.216680 14.343300 20.636100
45   1  0.5703 -0.058129  5.813720  5.690950
46   1  0.8502 12.973500  5.351040 18.637600
47   1  0.7350  2.241960 19.799400  8.728180
48   1  0.7092 16.626900 11.616400 12.102400
49   1  0.6561 13.651400 10.499300  5.728920
50   1  0.8555  0.668288  4.421530 10.306700
51   1  0.8061 12.561000 18.993300  7.005360
52   1  0.7570  5.938270 16.207400 17.450800
53   1  0.6042  7.882870  7.234960  5.814020
54   1  0.7635 10.746100  6.432130 11.209800
55   1  0.6520  4.805510 14.927000  2.828150
56   1  0.8127  8.559670 19.311900 19.344100
57   1  0.7358  9.093160  9.307680 14.992600
58   1  0.7612  1.737780 10.767000 15.367100
59   1  0.7432 12.575400 22.189200  5.199600
60   1  0.8445  9.717650 16.889300 16.210200
61   1  0.6861  3.106550  3.867600  4.580530
62   1  0.8151 10.604900  5.725470 15.212900
63   1  0.6619  6.087890  5.648700  2.699520
64   1  0.5646  4.496500 21.359800 23.714900
65   1  0.7394  2.963990  7.893220 10.309100
66   1  0.7180 14.068100  4.318250  4.898690
67   1  0.6770  9.016710 21.305800  4.302390
68   1  0.8119  6.635910 10.164100 17.249900
69   1  0.7977  7.183750 19.440300 11.222600
70   1  0.6928  0.790856 20.329200  5.040290
71   1  0.6395 10.553400 17.823100  3.757610
72   1  0.6723  4.284050 20.305400 18.813300
73   1  0.8086  9.124040  2.621580 13.341800
74   1  0.7597  2.453250  1.960240  0.059686
75   1  0.7357  7.304980 16.256500 23.488100
76   1  0.7735  7.215120 18.964500 14.501300
77   1  0.7417 13.399900  4.918580  1.384860
78   1  0.4996  4.767290 22.477700 21.038400
79   1  0.6841 14.253400 15.999000  8.534710
80   1  0.7298  7.360400  9.504110  8.516580
81   1  0.8180  4.273740  5.908080  7.704090
82   1  0.7025  6.764380  6.309030 17.753900
83   1  0.6239 15.253200  0.762102  9.478390
84   1  0.8691  4.670730  5.801750 13.397300
85   1  0.7360  7.006660 11.084600  4.337880
86   1  0.8391  3.048650  9.905220 20.012800
87   1  0.7835 10.349300 23.052700  8.682860
88   1  0.7485  8.168060 21.241900  0.087354
89   1  0.8051  9.758580  5.585080  2.424050
90   1  0.6948 13.832100  6.382220 13.055500
91   1  0.6621 12.576100  4.614120  8.631240
92   1  0.7222 13.204800  2.716340 15.795100
93   1  0.7725 13.491500 14.525000 13.359200
94   1  0.6516  9.209220  4.219560 19.072500
95   1  0.5860  5.764880 18.545800  1.523080
96   1  0.7140 11.245600  1.166460 19.246800
97   1  0.6718 15.406400  0.754447  5.417470
98   1  0.6989 11.228300  2.516300 23.143100
99   1  0.6709  4.609490 15.683400  6.461100
100  1  0.6133  2.059180 17.727400  3.279090
101  1  0.6987 10.445400  2.619290  4.870880
102  1  0.7801  5.607510  1.218810  2.549290
103  1  0.7819  4.204650 16.635300 11.212700
104  1  0.6724  8.784080 22.492300 21.430600
105  1  0.7211  9.961790 14.462100  5.030970
106  1  0.5940 13.982400  8.395930  0.902847
107  1  0.7628  5.262530  2.134630 16.763300
108  1  0.8074 13.665300 19.762400  2.716590
109  1  0.7309 15.110400  3.101030 13.074900
110  1  0.6370 13.048200  7.480970 22.267200
111  1  0.8078 15.828300 16.324600  5.294940
112  1  0.7483 15.735100 18.790300  9.955030
113  1  0.9228  6.068320  3.910220 23.427600
114  1  0.6804  8.651090 12.252900 12.579200
115  1  0.7397  4.273770  8.860040  2.959690
116  1  0.7537  1.728390 13.927600 13.721400
117  1  0.6443 -0.023511  4.348280  0.956963
118  1  0.6449  1.395530 21.688900 15.892700
119  1  0.8608  7.758820 16.900200  8.440610
120  1  0.7002 10.297800  9.380430  7.804280
121  1  0.5977 10.723500  2.763480  1.987300
122  1  0.6228 16.573200  0.378975 18.542000
123  1  0.7896  7.834280 13.086300  0.978287
124  1  0.7882  7.102850 13.448600  9.009960
125  1  0.5937  9.862340  5.524100 21.849500
126  1  0.7062  8.578270  4.636650  7.887220
127  1  0.5576  6.976010 17.048400  4.506440
128  1  0.8674 15.710800 11.304000  8.505060
129  2 -0.7860  1.386690  6.527180  8.413040
130  2 -0.3170 13.000900 22.684100 17.660000
131  2 -0.3991 12.987500 13.977000  5.153900
132  2 -0.4940  2.651380 14.665300  4.749810
133  2 -0.5817  6.062210  4.210710  8.876780
134  2 -0.5585  3.460120 20.886000  6.580660
135  2 -0.7400  7.246280 15.995000 11.355300
136  2 -0.4505  5.406360 17.976200 19.704700
137  2 -0.6352 10.078800 -0.064860 11.410000
138  2 -0.6343 12.967700  4.397550 21.170400
139  2 -0.7201  3.261310  0.992751 18.613000
140  2 -0.3066 14.013200 19.028500 12.929600
141  2 -0.5933  8.031760  3.686760 16.595500
142  2 -0.1278  0.039234 10.111100 18.165300
143  2 -0.1171 12.997500 17.769500 16.409100
144  2 -0.3834 15.483000 12.885900 14.898900
145  2 -0.5910  8.494870 11.759600 22.767800
146  2 -0.0152 11.841000 12.360300 17.160600
147  2 -0.4340 10.808500 14.539400 14.972400
148  2 -0.5757  2.918280  0.141438 12.848800
149  2 -0.4993 16.237900  6.715560 23.431300
150  2 -0.5387  9.703010  9.363830 11.661600
151  2 -0.5321  8.254120  1.560080  0.500287
152  2 -0.0056 11.724500 14.270800 22.394200
153  2 -0.0209 12.097200 11.362800 20.663700
154  2 -0.5109  1.640920 17.706400 10.887700
155  2 -0.5926 12.475900  7.450070  8.979540
156  2 -0.5138 10.346700  7.113610 18.182200
157  2 -0.3522  0.551854 11.504900  5.636030
158  2 -0.6741  7.680520 15.819900 15.119400
159  2 -0.6727  3.052610 22.837100  1.380160
160  2  0.0245 15.544100 14.724000 23.413200
161  2 -0.5326  0.313307  7.220640 16.643800
162  2 -0.6867 16.383900 18.156800  3.370230
163  2 -0.5913  4.622890 21.430300 10.328900
164  2 -0.2542  9.570460 18.524000 21.945400
165  2 -0.5659  1.426260 11.475800  9.188880
166  2 -0.5751  7.019680 13.745200 17.863000
167  2 -0.8825  5.090360 18.942200 12.788800
168  2 -0.0613 14.140300 15.221000 17.216300
169  2 -0.8500  5.231740  5.883610  5.344960
170  2  0.0308 10.954000 15.972100 21.595200
171  2 -0.7813 11.433400  5.735980  0.011143
172  2  0.0218 15.904700 12.698600 22.614600
173  2 -0.4657  1.802270 12.795500 17.094800
174  2 -0.5497  3.400820 16.623700  1.122810
175  2 -0.7459  5.895230 18.942100 16.559300
176  2 -0.0621 12.398600 19.609200 15.482700
177  2 -0.6169 14.361400  3.252790 24.025500
178  2 -0.0285 10.472100 13.955000 19.099800
179  2  0.0591 13.609900 12.392000 18.111800
180  2 -0.5830 11.898000  8.233720  5.706340
181  2 -0.5990  6.469740 19.364200 23.310000
182  2 -0.3850  2.825160  3.709910 13.903000
183  2 -0.3392  4.710130 11.855900  7.961420
184  2 -0.8156  5.398410 11.851700 20.096600
185  2 -0.5922 12.850300 21.966800  7.920330
186  2 -0.5200 13.888200  5.707190 16.016500
187  2 -0.0201 14.570400 17.476100 22.910300
188  2 -0.1966  1.885230 12.661300 20.567000
189  2 -0.7189  1.582790  2.984470  7.904570
190  2 -0.0792  2.429610 15.651500 20.961900
191  2 -0.6988 11.339000 20.982800  3.092050
192  2  0.0038 15.425600 12.426600 19.915600
193  2 -0.6652 15.204400 21.730300  3.981590
194  2 -0.5613  3.749150  7.700070 14.990400
195  2 -0.5863 16.445400 21.735700  7.425610
196  2 -0.7792 11.379500  3.803300 17.413600
197  2 -0.6279 12.948100 17.462800  4.723120
198  2 -0.7213  0.894338  2.976880 19.491500
199  2 -0.5450  4.607760  0.946298  8.446820
200  2 -0.5856 15.892500  1.194020 15.798000
201  2 -0.6881  9.581530 13.121100 10.118900
202  2 -0.6761  8.023850  8.835130 19.398900
203  2 -0.8729  7.190970 15.069100  6.609460
204  2 -0.0236 12.167000 15.318400 19.232000
205  2 -0.3830  9.346300 18.888900  9.907250
206  2 -0.7869  2.178230  9.436410 12.627200
207  2 -0.5280 16.539600 20.700500 18.831800
208  2 -0.8711  6.853210 21.057700 19.977500
209  2 -0.1130 12.470700 17.386800  0.353975
210  2 -0.7064  3.396740 15.819100 13.843100
211  2 -0.5649  2.065400 17.269400  6.808510
212  2  0.0691  1.099460 13.524600  0.866191
213  2 -0.4951 11.628500 -0.205191 21.690800
214  2 -0.4638 11.709900  0.407523  0.934221
215  2 -0.5853 14.956500 12.872900 10.599000
216  2 -0.8325  3.955310 12.098100 14.195000
217  2 -0.6999  4.247220 14.308800  9.265200
218  2 -0.5384  1.926990  4.643940 22.116500
219  2 -0.1019  2.299680 12.454500  2.214580
220  2  0.0201 14.216000 15.220100  1.449070
221  2 -0.7312  0.313238  3.715760  4.018100
222  2 -0.6307  6.926600  4.759460 20.911300
223  2 -0.4973  4.544530  8.924690  7.832280
224  2 -0.3751  8.379260  5.682220 13.417900
225  2 -0.8553  6.808290  8.385560  3.536360
226  2 -0.6061 11.583400  7.617800 13.790500
227  2 -0.5663 10.655200 20.511100  6.588100
228  2 -0.0322 13.002600  8.599040 17.487200
229  2 -0.4343  2.212210 19.244100 17.563600
230  2 -0.6541  4.657420 22.302600 15.843800
231  2 -0.6436 16.187900 21.572200 10.879500
232  2 -0.5880  0.815876 19.687300 13.982600
233  2 -0.6942 10.017200  8.167900  1.762280
234  2 -0.1105  1.985980 12.678100 22.603500
235  2  0.0349  1.856010 15.309700 22.676100
236  2 -0.2354 10.779700 14.341600  1.665470
237  2 -0.5968  5.056600  9.624070 22.699800
238  2 -0.4053  5.898080  7.683550 11.686400
239  2 -0.0478 15.676700 18.027100 21.267900
240  2  0.0603 16.043900 17.524300 18.183700
241  2 -0.6929 13.129900 11.331600  8.218720
242  2  0.0087 14.015800 18.198400 19.109600
243  2 -0.6860  2.260240  7.800180  4.656600
244  2 -0.6213  9.389870 11.499200  3.861250
245  2 -0.7153 10.881300  2.920660  7.939840
246  2 -0.5105  4.793850  6.163770 24.158700
247  2 -0.6681  8.144720  0.792708  5.712430
248  2 -0.7588  6.345130 21.621200  1.727370
249  2 -0.9239  9.104420  4.654630  4.780190
250  2 -0.6544  8.086470  7.543560 23.316800
251  2 -0.5129  9.611170 18.172700 13.311400
252  2 -0.5326 14.675000 21.014200 24.233100
253  2 -0.9006 14.749100  4.282830 10.304900
254  2 -0.1999  0.761407  8.599840 21.586300
255  2 -0.7607 13.088000  2.244820  5.885570
256  2 -0.1374 11.468100  9.941840 19.600700
257  2 -0.4729 14.348700  2.243440 19.457400
258  2 -0.5705  6.740410  8.034720 15.316900
259  2 -0.5195  1.484510 -0.002589  4.022240
260  2 -0.3288  3.224210 16.275800 17.452000
261  2 -0.6283 16.044800 14.351500  7.643350
262  2 -0.6285  8.904050  7.284720  9.405290
263  2 -0.7249  4.259910  1.895200 21.983000
264  2 -0.4444  3.284250  4.673540 10.374700
265  2 -0.5653 10.560800 16.551400  7.171620
266  2 -0.5927  5.753850 11.749800  1.347140
267  2 -0.6651 15.225000  8.611670  7.870270
268  2 -0.1928 10.902600 22.375900 14.785000
269  2 -0.5449 13.222900 10.011800 23.432400
270  2 -0.4748  5.405120 18.217500  8.632690
271  2 -0.6896  4.180740  4.702120 16.926900
272  2 -0.5163  9.083370 20.183300 16.763500
273  2 -0.0287 12.746900 19.393700 21.576500
274  2 -0.6595  4.745100  1.430020  4.834170
275  2 -0.7372 16.622300  5.562710 12.717900
276  2 -0.8218  7.370310 14.274200  3.223290
277  2 -0.8420 11.690500  3.993770 13.276800
278  2 -0.6188 13.579200  2.491000  2.905620
279  2  0.0432 16.524000 15.266500 20.669800
280  2 -0.6105 12.108100 15.355300 10.624700
281  2 -0.7449  8.992220  1.887480 20.931600
282  2 -0.6126 15.612700 18.745800  6.987560
283  2 -0.4445 12.985700 18.308200 10.027700
284  2 -0.6985  8.445180 11.645300  7.243800
285  2 -0.4890  7.974110 22.693500 14.339300
286  2 -0.1532 12.395500 20.201600 19.912000
287  2 -0.4005  7.703840 22.070900  8.784600
288  2  0.0075 16.094400 14.262600 17.401700
289  2 -0.4318  0.192401  9.786370  1.146670
290  2 -0.8569  0.636159  0.269444 23.273300
291  2  0.0206 16.102000 17.394300 15.249900
292  2 -0.6052  1.053210 14.667600 11.420900
293  2 -0.5635  8.940070  3.301750 10.783800
294  2 -0.6556  7.743280  4.549010  0.917526
295  2 -0.4520  4.009240 10.716400  4.654940
296  2 -0.4145  9.015980 16.734300 19.195800
297  2 -0.5892 12.591400  5.963520  3.740900
298  2 -0.0630 15.743000 14.315400  2.575610
299  2 -0.5491  0.425449  2.058850 11.230700
300  2 -0.5642  3.913390  9.870840 17.165500
301  2 -0.8214 15.764000  6.636360  2.869660
302  2  0.0144 14.146300 15.714200 21.118900
303  2 -0.4012  7.742840 19.214800  6.497870
304  2 -0.4111  8.559320 14.400100 21.715300
305  2 -0.6636  4.364540  3.392700  1.369230
306  2 -0.3441 15.219300  6.981080 19.700400
307  2 -0.2097 16.261300 16.272300 13.308000
308  2 -0.5692  1.873620 19.519200 22.695500
309  2 -0.3968  6.266880  2.571780 13.269700
310  2 -0.7264  4.838820  7.851140 19.523300
311  2 -0.6596  6.252330 11.318300 11.073500
312  2 -0.5828  8.669370 18.398900  1.192700
313  2 -0.3630 12.556800 11.166500 13.906100
314  2 -0.7101  7.141330 11.683500 15.067100
315  2 -0.7014 14.057000  0.726329 12.460700
316  2 -0.7665  5.196490 19.024100  4.316150
317  2  0.0132 16.698500 10.106000 22.001400
318  2 -0.4172 13.250100 11.716900  2.761690
319  2 -0.6297 15.053700  9.577590 11.612300
320  2 -0.6363  5.376040 14.386700 24.054400

