Generated by pymatgen.io.lammps.data.LammpsData

80  atoms

 2  atom types

0.000000 11.919218  xlo xhi
0.000000 12.197308  ylo yhi
0.000000 14.084790  zlo zhi

Masses

1  106.42
2   78.96

Atoms

1   1  1.489900  1.524660  0.000000
2   1  1.489900  1.524660  7.042400
3   1  1.489900  7.623320  0.000000
4   1  1.489900  7.623320  7.042400
5   1  7.449510  1.524660  0.000000
6   1  7.449510  1.524660  7.042400
7   1  7.449510  7.623320  0.000000
8   1  7.449510  7.623320  7.042400
9   1  4.469710  1.524660  0.000000
10  1  4.469710  1.524660  7.042400
11  1  4.469710  7.623320  0.000000
12  1  4.469710  7.623320  7.042400
13  1 10.429300  1.524660  0.000000
14  1 10.429300  1.524660  7.042400
15  1 10.429300  7.623320  0.000000
16  1 10.429300  7.623320  7.042400
17  1  1.489900  4.573990  0.000000
18  1  1.489900  4.573990  7.042400
19  1  1.489900 10.672600  0.000000
20  1  1.489900 10.672600  7.042400
21  1  7.449510  4.573990  0.000000
22  1  7.449510  4.573990  7.042400
23  1  7.449510 10.672600  0.000000
24  1  7.449510 10.672600  7.042400
25  1  4.469710  4.573990  0.000000
26  1  4.469710  4.573990  7.042400
27  1  4.469710 10.672600  0.000000
28  1  4.469710 10.672600  7.042400
29  1 10.429300  4.573990  0.000000
30  1 10.429300  4.573990  7.042400
31  1 10.429300 10.672600  0.000000
32  1 10.429300 10.672600  7.042400
33  2  2.979800  3.049330  1.378820
34  2  2.979800  3.049330  8.421220
35  2  2.979800  9.147980  1.378820
36  2  2.979800  9.147980  8.421220
37  2  8.939410  3.049330  1.378820
38  2  8.939410  3.049330  8.421220
39  2  8.939410  9.147980  1.378820
40  2  8.939410  9.147980  8.421220
41  2  0.000000  1.201790  1.927270
42  2  0.000000  1.201790  8.969670
43  2  0.000000  7.300450  1.927270
44  2  0.000000  7.300450  8.969670
45  2  5.959610  1.201790  1.927270
46  2  5.959610  1.201790  8.969670
47  2  5.959610  7.300450  1.927270
48  2  5.959610  7.300450  8.969670
49  2  0.000000  4.896860  1.927270
50  2  0.000000  4.896860  8.969670
51  2  0.000000 10.995500  1.927270
52  2  0.000000 10.995500  8.969670
53  2  5.959610  4.896860  1.927270
54  2  5.959610  4.896860  8.969670
55  2  5.959610 10.995500  1.927270
56  2  5.959610 10.995500  8.969670
57  2  2.979800  1.847530  5.115120
58  2  2.979800  1.847530 12.157500
59  2  2.979800  7.946190  5.115120
60  2  2.979800  7.946190 12.157500
61  2  8.939410  1.847530  5.115120
62  2  8.939410  1.847530 12.157500
63  2  8.939410  7.946190  5.115120
64  2  8.939410  7.946190 12.157500
65  2  2.979800  4.251120  5.115120
66  2  2.979800  4.251120 12.157500
67  2  2.979800 10.349800  5.115120
68  2  2.979800 10.349800 12.157500
69  2  8.939410  4.251120  5.115120
70  2  8.939410  4.251120 12.157500
71  2  8.939410 10.349800  5.115120
72  2  8.939410 10.349800 12.157500
73  2  0.000000  0.000000  5.663570
74  2  0.000000  0.000000 12.706000
75  2  0.000000  6.098650  5.663570
76  2  0.000000  6.098650 12.706000
77  2  5.959610  0.000000  5.663570
78  2  5.959610  0.000000 12.706000
79  2  5.959610  6.098650  5.663570
80  2  5.959610  6.098650 12.706000

