Generated by pymatgen.io.lammps.data.LammpsData

360  atoms

  2  atom types

0.000000 16.677463  xlo xhi
0.000000 21.699897  ylo yhi
0.000000 28.493178  zlo zhi

Masses

1  208.9804
2   78.9600

Atoms

1    1  0.8076  2.091510 13.039200 19.623100
2    1  0.7039  4.407060 17.219500 19.504700
3    1  0.8183  1.886190  6.007300 19.777800
4    1  0.8311  4.443790  9.079700 20.566000
5    1  0.7133  6.653870 13.005400 20.273600
6    1  0.6702  8.365400 16.566000 19.477600
7    1  0.7134  2.020690 20.116400 19.395300
8    1  0.8007  3.860340  1.881570 19.711000
9    1  0.8199  5.728170  5.223870 20.257000
10   1  0.7881  8.695010  8.910610 20.022800
11   1  0.8290 10.629500 12.663400 19.915400
12   1  0.8706 12.899700 16.703800 20.115300
13   1  0.7445  5.876370 20.112400 19.569800
14   1  0.8097  8.417890  1.819780 19.858700
15   1  0.7614 10.535600  5.418600 20.251800
16   1  0.8067 12.986900  9.250980 19.959100
17   1  0.7856 14.815300 12.591200 19.857400
18   1  0.8170  0.253942 16.567700 19.297000
19   1  0.8964 10.354900 20.031300 19.757100
20   1  0.8199 12.917200  1.969460 19.792300
21   1  0.7264 14.249600  5.621590 19.231000
22   1  0.8162  0.321362  9.494850 20.014400
23   1  0.8680 13.933700 19.953500 19.813200
24   1  0.8098 16.539900  2.083830 19.416800
25   1  0.7844  1.778050 13.621800 26.017800
26   1  0.7385  3.830300 17.193300 25.880300
27   1  0.8207  2.162790  6.101680 26.037700
28   1  0.6587  4.015320  9.585650 25.880200
29   1  0.8034  5.927110 13.358600 25.510600
30   1  0.8261  8.230240 16.395600 25.524600
31   1  0.6757  2.168850 20.519600 25.493700
32   1  0.8315  4.129830  2.743640 26.236400
33   1  0.7532  6.008100  5.919320 25.654800
34   1  0.7935  7.789490  9.870410 26.081200
35   1  0.8181 10.736200 13.282900 25.884600
36   1  0.7304 12.591100 17.308200 25.743100
37   1  0.7511  5.910590 20.094000 25.523600
38   1  0.7715  7.739760  2.695990 25.822400
39   1  0.8140 10.029400  5.698290 25.525100
40   1  0.8861 12.348700  9.359150 25.968400
41   1  0.8248 14.649200 13.933600 25.156900
42   1  0.8152 16.434400 17.189100 25.742400
43   1  0.7552 10.309600 20.415000 25.769900
44   1  0.8844 11.600000  2.688290 24.284900
45   1  0.7937 14.558300  5.992050 26.254300
46   1  0.7481  0.170237  9.703730 25.217000
47   1  0.7959 14.407500 20.816200 25.704700
48   1  0.7615  0.084337  2.298570 25.915900
49   1  0.7716  1.829280 16.046200  0.437648
50   1  0.6793  4.191370 19.581400  0.369669
51   1  0.8153  2.179060  8.913890  0.790532
52   1  0.7865  3.737720 12.201100  0.383377
53   1  0.8112  6.272300 15.449300  0.556236
54   1  0.6722  8.320900 18.347800  0.624934
55   1  0.7861  2.185520  1.042060  0.642607
56   1  0.7985  4.083510  4.735160  1.447170
57   1  0.7456  5.820460  8.667430  1.186900
58   1  0.8270  8.144340 11.739200  1.485670
59   1  0.7885 10.842600 15.427900  0.997197
60   1  0.6884 12.283400 18.701200  0.984162
61   1  0.8095  6.600130  1.684590  0.910755
62   1  0.7173  8.580180  4.888460  0.790144
63   1  0.7837 10.385700  8.654170  1.087430
64   1  0.7851 12.131000 11.861800  0.735681
65   1  0.8380 14.676600 15.318000  0.726399
66   1  0.7904  0.115066 19.416700  1.073750
67   1  0.7653  9.876040  0.419825  1.144820
68   1  0.8139 12.628300  4.329900  0.796865
69   1  0.7906 14.636500  8.254770  1.005320
70   1  0.8667 16.478500 12.264600  0.391040
71   1  0.8060 14.471500  0.827348  1.292700
72   1  0.7865 16.562200  4.355740  1.656740
73   1  0.7757  1.907340 15.033300  6.002420
74   1  0.7678  3.708750 19.262900  6.477340
75   1  0.7875  2.196930  7.936270  6.316900
76   1  0.8084  4.044010 11.054500  6.511680
77   1  0.8855  6.321910 14.535900  6.344820
78   1  0.8392  8.327070 18.459200  6.420490
79   1  0.7999  2.202410  0.672834  6.144740
80   1  0.7925  4.467660  3.997200  7.242940
81   1  0.8107  6.662470  7.092820  6.986190
82   1  0.8176  9.188500 11.317200  6.822000
83   1  0.8896 10.089700 15.175000  6.593220
84   1  0.8483 12.341100 18.380500  6.668860
85   1  0.7718  5.873580  0.372534  7.215670
86   1  0.8065  8.499940  4.107070  6.847120
87   1  0.7966 10.375500  8.046130  6.478100
88   1  0.8683 12.582300 11.894700  6.210110
89   1  0.8548 14.896700 15.119400  6.529250
90   1  0.8235  0.054199 18.798100  6.298870
91   1  0.7686 10.500200  1.036970  7.235090
92   1  0.8265 12.566100  4.838910  6.431810
93   1  0.7867 14.024000  8.537420  7.308840
94   1  0.7650 16.534200 11.480800  7.065190
95   1  0.7357 14.238900 21.668700  7.369440
96   1  0.7999  0.268337  4.298920  6.889320
97   1  0.7190 16.229000 14.465600 10.044400
98   1  0.7932  1.919840 17.052600  9.950660
99   1  0.8456 16.180000  6.587700 10.190500
100  1  0.6954  2.174030 10.676800 10.136900
101  1  0.7377  4.317240 13.803900  9.928440
102  1  0.7524  6.019200 17.440300  9.940910
103  1  0.8153 16.601600 20.829700 10.257900
104  1  0.7841  2.748750  3.052560 10.558200
105  1  0.7517  4.395960  6.863690  9.998360
106  1  0.8100  5.854930  9.971920 10.099500
107  1  0.7458  7.946720 14.301900 10.746700
108  1  0.6893 10.413500 16.334800  9.960690
109  1  0.7963  3.752680 21.257400 10.190200
110  1  0.8360  6.561940  3.915210 11.719000
111  1  0.7181  8.174460  7.454420 10.188200
112  1  0.7570 10.067700 10.920100 10.519600
113  1  0.7458 12.822500 13.415200 10.355000
114  1  0.8409 14.088700 17.543300 10.746900
115  1  0.7236  8.126460 20.511100  9.697260
116  1  0.7780 10.995800  2.737550 10.739000
117  1  0.7512 12.201600  6.547180 10.263400
118  1  0.7064 15.191800 10.243400 10.299800
119  1  0.6806 12.377700 20.696500 10.569200
120  1  0.7288 14.759100  2.820860  9.754950
121  1  0.7836  0.207437 13.806500 16.673300
122  1  0.7970  1.712150 18.184600 16.308000
123  1  0.7407 16.538000  7.180130 15.989600
124  1  0.8096  2.364130 10.281200 16.248400
125  1  0.8149  4.617360 13.556900 16.459100
126  1  0.7969  6.887060 17.617100 16.711600
127  1  0.7889 16.467600 21.536600 16.767900
128  1  0.8346  2.259140  2.932220 15.522100
129  1  0.7648  4.380090  6.753180 16.816800
130  1  0.7516  6.469570 10.158600 16.731700
131  1  0.7747  8.361100 13.628300 16.598400
132  1  0.8476 10.953300 17.887700 16.334300
133  1  0.8129  4.473300 21.146800 15.766900
134  1  0.7514  6.306220  3.344970 16.769200
135  1  0.7602  8.309990  6.785230 16.572300
136  1  0.8604 10.951900 10.092900 16.604100
137  1  0.8267 12.398900 13.840300 16.017900
138  1  0.8073 14.699200 17.951100 16.628500
139  1  0.8264  8.584430 21.538000 16.318000
140  1  0.8202 10.236000  2.809730 16.682600
141  1  0.8455 12.285200  6.625340 16.056600
142  1  0.7415 14.499400 10.234400 16.005800
143  1  0.8513 12.706600 21.168600 16.716400
144  1  0.8441 14.280500  3.250620 16.229300
145  2 -0.9429 16.418100 14.273600 27.485900
146  2 -0.9585  1.649600 18.017100 27.371400
147  2 -0.7865 16.584000  7.082890 27.865000
148  2 -0.9600  1.887910 10.961800 27.734900
149  2 -0.8751  4.154380 14.765300 27.272300
150  2 -0.8722  6.405860 17.738000 27.372400
151  2 -0.8256 16.553600 21.671400 27.426000
152  2 -0.8305  2.255680  3.609110 27.588400
153  2 -0.8767  3.995080  7.245060 27.460200
154  2 -0.8445  6.187150 11.404200 27.832100
155  2 -0.6963  8.803460 14.153000 28.116300
156  2 -0.8864 10.304600 17.335300 27.151100
157  2 -0.8271  4.527090  0.401350 27.689000
158  2 -0.9189  6.219460  3.780480 27.607900
159  2 -0.7493  8.241880  6.994280 27.816900
160  2 -0.7884 10.411800 10.269600 27.435100
161  2 -0.8171 12.787700 14.270200 27.590800
162  2 -0.8224 14.866100 18.469200 27.300300
163  2 -0.7674  7.950840  0.110288 27.431500
164  2 -0.6770 10.681800  3.259560 27.152300
165  2 -0.7495 12.162500  7.132640 27.778000
166  2 -0.7027 14.129600 11.203500 27.561400
167  2 -0.6685 12.239400  0.065303 27.541600
168  2 -0.6977 14.518000  3.261050 27.461000
169  2 -0.3175  1.538020 15.504800 24.059500
170  2 -0.3099  4.169170 18.839900 23.568700
171  2 -0.3915  2.106210  7.679600 23.899100
172  2 -0.4323  4.046350 12.084900 24.117500
173  2 -0.3681  6.118710 16.255400 24.079900
174  2 -0.3234  8.419080 19.124400 24.252000
175  2 -0.3699  3.548000  0.550013 24.025100
176  2 -0.4280  3.743910  4.299230 24.338300
177  2 -0.4023  6.520180  8.361070 24.257900
178  2 -0.4820  8.316890 12.654800 24.779000
179  2 -0.3124 11.058800 15.184100 23.937900
180  2 -0.3652 12.108800 19.202300 23.932300
181  2 -0.1805  6.918900  0.840721 23.736400
182  2 -0.5330  8.844980  4.022080 23.986000
183  2 -0.3445  9.945790  8.211560 24.587700
184  2 -0.3472 12.917800 11.769100 24.381900
185  2 -0.4017 14.430300 16.483000 23.869400
186  2 -0.3104  0.038037 19.496600 23.786600
187  2 -0.2949 10.130800  0.669499 23.696300
188  2 -0.4249 12.367400  5.169840 24.253900
189  2 -0.4279 14.344200  8.317660 24.612900
190  2 -0.4299  0.064932 12.409900 24.174400
191  2 -0.3267 14.285000  1.147600 23.765900
192  2 -0.2852 16.498900  4.720460 24.238500
193  2 -0.3964 16.536500 14.372900 20.987100
194  2 -0.3352  1.820630 17.426900 21.096600
195  2 -0.3657  0.117937  6.980380 21.352800
196  2 -0.3888  2.321610 10.721800 21.596800
197  2 -0.3583  4.031350 14.871300 21.082400
198  2 -0.3300  6.068230 17.791700 21.583400
199  2 -0.4224 15.808800  0.025465 20.839900
200  2 -0.3471  1.326200  3.675820 21.113600
201  2 -0.4125  4.742660  6.728820 21.939800
202  2 -0.3784  6.933520 10.434900 21.741100
203  2 -0.4219  8.742260 13.999600 21.601500
204  2 -0.4269 10.513000 17.639400 21.133200
205  2 -0.4823  4.058990 21.186300 21.053500
206  2 -0.2864  5.627940  2.903950 22.087700
207  2 -0.3760  8.096200  6.437350 21.734800
208  2 -0.3480 10.966000 10.190800 21.648900
209  2 -0.4141 12.622700 14.247900 21.178400
210  2 -0.3910 14.954100 18.065200 21.084600
211  2 -0.3686  8.127950 21.394200 21.195300
212  2 -0.5315 10.655300  2.767560 21.302900
213  2 -0.2867 12.537100  6.954930 21.864400
214  2 -0.4092 15.027700 10.201000 21.735800
215  2 -0.3599 12.228500 21.315700 21.653900
216  2 -0.3370 14.541900  3.818600 21.452700
217  2 -0.8637  1.617960 13.171100  8.571370
218  2 -0.7853  3.728980 16.276900  8.330290
219  2 -0.7576  2.049610  5.442260  8.700690
220  2 -0.8954  4.404440  9.040930  8.321050
221  2 -0.7205  6.146910 12.335500  8.318800
222  2 -0.8444  7.714360 15.879200  8.280140
223  2 -0.8222  1.728450 19.841500  8.288350
224  2 -0.8606  3.478850  1.656560  8.353430
225  2 -0.9220  6.199980  5.449760  8.976220
226  2 -0.8192  7.796060  9.167860  8.061600
227  2 -0.8001 10.245300 13.408900  8.612580
228  2 -0.7532 12.407400 16.005800  8.066610
229  2 -0.8673  6.009520 19.595500  8.108550
230  2 -0.6906  8.629240  2.163860  8.906770
231  2 -0.7994 10.418700  5.819140  8.258720
232  2 -0.8345 11.819100  9.717300  8.564050
233  2 -0.8906 14.465000 13.093800  8.196120
234  2 -0.7764 16.169700 16.979200  8.339880
235  2 -0.8112 10.285500 19.268200  8.263590
236  2 -0.8509 12.521400  2.591430  8.293280
237  2 -0.8020 14.323100  5.767660  8.530660
238  2 -0.8351 16.517000  8.730670  8.394410
239  2 -0.8355 14.329600 19.421100  9.128690
240  2 -0.7499 16.344900  1.274010  8.238110
241  2 -0.3825 16.289400 13.791400  4.893070
242  2 -0.4324  2.072220 17.656100  4.592250
243  2 -0.2869 16.234700  6.902070  5.437240
244  2 -0.3949  1.731210 10.620900  5.166930
245  2 -0.3910  4.034810 13.354500  5.032850
246  2 -0.3443  6.258780 17.291000  5.058040
247  2 -0.3951 16.061100 21.073100  5.098910
248  2 -0.4241  2.194540  3.565460  5.325620
249  2 -0.4223  4.459700  6.308390  5.349560
250  2 -0.2398  6.726300 10.636700  5.120330
251  2 -0.4952  8.625080 13.448800  5.490380
252  2 -0.4291 10.348000 17.259200  4.949050
253  2 -0.3597  4.742860 21.330100  4.855830
254  2 -0.4033  5.967780  2.646020  5.520640
255  2 -0.4316  8.560700  6.434320  5.163980
256  2 -0.4597 10.955600 10.495700  4.907850
257  2 -0.3865 12.535700 13.972300  5.080580
258  2 -0.3275 14.763500 17.762200  4.826460
259  2 -0.3396  8.834020 21.229600  5.606570
260  2 -0.3500 10.205700  2.987690  5.147100
261  2 -0.3740 12.541500  7.469310  5.044400
262  2 -0.4338 14.674700 10.291700  5.600650
263  2 -0.3889 12.264600 21.020100  5.509130
264  2 -0.3014 15.035200  2.740270  4.971080
265  2 -0.3045  1.703980 13.081500  2.413900
266  2 -0.4031  4.121820 16.548200  1.980710
267  2 -0.4119  1.663380  6.061000  2.560780
268  2 -0.5080  3.828420  9.754760  2.393930
269  2 -0.3138  5.973360 12.799700  2.568240
270  2 -0.3313  8.335600 15.661300  2.632420
271  2 -0.4446  2.291080 20.518600  2.410460
272  2 -0.4261  4.360850  2.198160  2.249140
273  2 -0.2610  6.215540  5.380780  3.445940
274  2 -0.4844  8.068650  8.999130  2.550060
275  2 -0.4500 10.371000 12.970800  2.476810
276  2 -0.4553 12.802300 16.492300  2.434550
277  2 -0.2508  6.737030 20.011500  2.642830
278  2 -0.2597  8.271340  1.360270  3.210950
279  2 -0.3490 10.648700  5.543320  2.699830
280  2 -0.2920 12.814000  9.438160  2.838660
281  2 -0.3015 14.669200 12.431300  2.343070
282  2 -0.4082 16.191300 16.327400  2.351080
283  2 -0.3656 10.289100 19.884300  2.812430
284  2 -0.4649 11.967400  2.160920  1.952590
285  2 -0.4417 14.346600  5.745990  2.532910
286  2 -0.2660 16.509700  9.217680  2.526440
287  2 -0.3648 14.277000 19.751100  2.495390
288  2 -0.5036  0.395837  1.746350  2.409960
289  2 -0.7089  2.385490 15.576300 17.411000
290  2 -0.8792  4.255500 18.713300 17.329000
291  2 -0.8234  2.312720  8.606470 18.371100
292  2 -0.8083  4.261340 11.500600 18.321700
293  2 -0.8899  6.349250 15.253500 17.595100
294  2 -0.8718  8.824510 19.022100 17.773100
295  2 -0.8662  2.097950  1.049400 17.702300
296  2 -0.8284  3.787060  4.422470 18.514400
297  2 -0.8419  6.221210  7.519980 18.723900
298  2 -0.8560  8.634160 11.158400 18.368600
299  2 -0.7449 10.690700 15.113400 17.777200
300  2 -0.9866 12.453200 18.848200 18.191200
301  2 -0.8700  6.299670  0.447950 18.114100
302  2 -0.8571  8.489030  4.193190 18.277700
303  2 -0.8261 10.927800  7.953350 17.934400
304  2 -0.8756 12.456000 11.607700 18.316300
305  2 -0.8056 14.920500 15.392900 18.095400
306  2 -0.9087 16.421200 19.289100 18.443500
307  2 -0.8890 10.480600  0.162167 18.046200
308  2 -0.8695 12.342200  4.083710 18.008900
309  2 -0.9042 14.137700  8.051240 17.926900
310  2 -0.9362  0.304637 11.627300 18.392100
311  2 -0.9462 14.360200  1.026130 18.010400
312  2 -0.7430 16.656000  4.480540 17.717200
313  2 -0.2923  2.043380 13.110700 14.799200
314  2 -0.1179  4.365030 16.972400 14.509500
315  2 -0.4494  2.059810  6.215110 15.213000
316  2 -0.3439  4.677790  9.378950 14.773700
317  2 -0.3891  6.718190 12.258800 14.924700
318  2 -0.3757  8.835590 16.153000 15.049800
319  2 -0.3359  2.401000 20.126900 14.351700
320  2 -0.5096  4.738420  1.925450 14.846400
321  2 -0.4992  6.373760  5.279080 15.092200
322  2 -0.3543  8.724450  9.250490 15.111000
323  2 -0.3563 10.702000 12.031500 14.847500
324  2 -0.3421 13.294300 16.423200 14.739500
325  2 -0.2901  6.756380 20.612100 14.250200
326  2 -0.3667  7.957100  2.187960 14.684500
327  2 -0.4336 10.620900  5.135220 15.099600
328  2 -0.3650 12.799900  9.326960 14.447500
329  2 -0.3005 14.427300 12.692000 14.406000
330  2 -0.3749  0.078637 16.662400 15.106000
331  2 -0.3114 10.900000 20.054300 14.505900
332  2 -0.4379 12.372600  1.711210 15.187200
333  2 -0.3463 14.320000  5.878340 14.209500
334  2 -0.4001  0.304718  9.960850 14.578700
335  2 -0.4928 15.044200 20.021700 15.152500
336  2 -0.3358 16.400700  1.972160 14.543700
337  2 -0.2478  1.965770 15.156700 11.994500
338  2 -0.3796  3.712340 18.742200 11.523100
339  2 -0.2962  1.544230  8.206510 11.913200
340  2 -0.3839  4.004430 11.764500 11.805200
341  2 -0.3560  5.755620 15.109500 12.116000
342  2 -0.3484  8.320250 17.929700 11.825400
343  2 -0.4000  1.907510  0.940061 12.032500
344  2 -0.3889  4.220940  5.326880 12.428500
345  2 -0.3661  6.441950  8.548540 12.210800
346  2 -0.3658  7.772360 11.782100 11.870600
347  2 -0.3458 10.688200 13.712800 12.245100
348  2 -0.4261 11.801100 18.048800 11.896600
349  2 -0.5291  5.703410  1.086870 10.779300
350  2 -0.3643  9.166100  4.979170 11.965100
351  2 -0.3171 10.059200  8.183920 12.059300
352  2 -0.2918 13.029700 11.428400 12.208600
353  2 -0.3699 14.117700 15.253900 12.175500
354  2 -0.2830 16.493000 18.564600 12.128400
355  2 -0.3867  9.731750  0.312975 11.680500
356  2 -0.3492 13.019300  3.349120 12.265300
357  2 -0.4291 14.252500  7.946460 11.686100
358  2 -0.3849  0.146858 11.826800 11.736500
359  2 -0.3548 14.655800  0.373417 11.965500
360  2 -0.3782  0.393459  4.342050 11.694100

