Generated by pymatgen.io.lammps.data.LammpsData

320  atoms

  2  atom types

0.000000 16.706618  xlo xhi
0.000000 22.793150  ylo yhi
0.000000 24.472453  zlo zhi

Masses

1  208.9804
2   78.9600

Atoms

1    1  0.8574  0.967775 11.413400 10.585300
2    1  0.8578  0.970982 11.414100 22.828100
3    1  0.8572  0.967618 22.806500 10.587900
4    1  0.8579  0.971158 22.808900 22.824300
5    1  0.8575  5.144370 11.410500 10.588000
6    1  0.8577  5.142730 11.412700 22.825100
7    1  0.8579  5.145310 22.806900 10.586900
8    1  0.8576  5.142940 22.809200 22.825700
9    1  0.8577  9.323040 11.413100 10.587400
10   1  0.8574  9.321650 11.413400 22.826600
11   1  0.8578  9.322910 22.808600 10.588600
12   1  0.8575  9.321220 22.806800 22.823800
13   1  0.8572 13.496500 11.412000 10.586800
14   1  0.8575 13.497800 11.413600 22.825600
15   1  0.8578 13.498500 22.807900 10.587300
16   1  0.8579 13.497300 22.808300 22.827100
17   1  0.8578  3.058820  0.411361  1.641680
18   1  0.8579  3.055310  0.412580 13.875900
19   1  0.8573  3.058590 11.809000  1.643990
20   1  0.8574  3.056500 11.809300 13.877300
21   1  0.8578  7.234040  0.412374  1.642840
22   1  0.8578  7.232850  0.413920 13.876500
23   1  0.8578  7.232140 11.810700  1.644160
24   1  0.8577  7.232320 11.810000 13.876900
25   1  0.8577 11.409300  0.410842  1.641630
26   1  0.8579 11.411100  0.410591 13.878600
27   1  0.8575 11.411000 11.809300  1.644020
28   1  0.8573 11.411400 11.812100 13.876500
29   1  0.8577 15.582300  0.412510  1.644580
30   1  0.8575 15.587200  0.412076 13.877900
31   1  0.8579 15.583400 11.809100  1.644330
32   1  0.8576 15.588000 11.809000 13.876800
33   1  0.8576  3.056780  5.714860  7.762400
34   1  0.8571  3.057810  5.710270 20.006500
35   1  0.8578  3.056700 17.111200  7.766290
36   1  0.8580  3.059080 17.110800 19.999600
37   1  0.8576  7.234410  5.713980  7.763500
38   1  0.8576  7.232980  5.711980 20.004200
39   1  0.8573  7.233700 17.108900  7.768030
40   1  0.8578  7.230380 17.110000 20.000400
41   1  0.8576 11.408700  5.713880  7.760700
42   1  0.8570 11.408900  5.712480 20.007400
43   1  0.8578 11.408900 17.109500  7.767520
44   1  0.8577 11.411200 17.112300 20.000100
45   1  0.8580 15.584100  5.716070  7.760340
46   1  0.8573 15.586200  5.712090 20.007100
47   1  0.8573 15.585800 17.112500  7.768190
48   1  0.8578 15.584300 17.109200 20.001500
49   1  0.8571  0.971614  6.113260  4.471220
50   1  0.8578  0.969096  6.107470 16.715200
51   1  0.8584  0.969681 17.506900  4.477500
52   1  0.8579  0.969625 17.508700 16.710600
53   1  0.8578  5.146670  6.109980  4.472040
54   1  0.8578  5.143290  6.110110 16.717200
55   1  0.8579  5.147380 17.505600  4.477100
56   1  0.8579  5.144090 17.509200 16.712000
57   1  0.8573  9.323260  6.111350  4.473030
58   1  0.8575  9.321980  6.109570 16.715500
59   1  0.8582  9.321670 17.507900  4.479180
60   1  0.8579  9.322050 17.507400 16.709200
61   1  0.8577 13.495500  6.110210  4.470570
62   1  0.8582 13.498300  6.108790 16.718600
63   1  0.8577 13.495200 17.506500  4.475840
64   1  0.8578 13.497800 17.509500 16.712700
65   1  0.8383  0.969084  2.196610  5.747760
66   1  0.8382  0.968133  2.197510 17.988500
67   1  0.8386  0.969085 13.596100  5.747460
68   1  0.8382  0.968604 13.597000 17.989000
69   1  0.8387  5.143860  2.197450  5.748270
70   1  0.8384  5.145810  2.196760 17.991700
71   1  0.8380  5.145280 13.596000  5.748560
72   1  0.8384  5.144180 13.594000 17.985600
73   1  0.8387  9.323620  2.198010  5.750040
74   1  0.8380  9.321310  2.198560 17.987500
75   1  0.8391  9.323290 13.593800  5.750960
76   1  0.8379  9.321320 13.594600 17.984400
77   1  0.8385 13.496500  2.199440  5.745520
78   1  0.8384 13.496900  2.197250 17.988500
79   1  0.8382 13.496700 13.596700  5.750110
80   1  0.8381 13.500000 13.593500 17.983100
81   1  0.8386  3.056620  9.627220  6.486520
82   1  0.8384  3.060220  9.626910 18.727800
83   1  0.8389  3.060180 21.023400  6.485120
84   1  0.8384  3.056590 21.025100 18.721700
85   1  0.8388  7.232710  9.628150  6.485700
86   1  0.8387  7.231790  9.628900 18.721900
87   1  0.8386  7.234380 21.023400  6.488080
88   1  0.8387  7.231160 21.023500 18.722300
89   1  0.8387 11.410400  9.628700  6.488980
90   1  0.8380 11.411600  9.626240 18.726300
91   1  0.8387 11.409800 21.023600  6.483370
92   1  0.8385 11.412100 21.022800 18.722700
93   1  0.8387 15.586400  9.626360  6.482570
94   1  0.8385 15.584100  9.627300 18.724600
95   1  0.8385 15.584200 21.021400  6.486930
96   1  0.8386 15.587700 21.024900 18.721300
97   1  0.8382  3.055590  7.895020 12.604500
98   1  0.8382  3.059670  7.895680  0.372374
99   1  0.8385  3.055000 19.292500 12.600800
100  1  0.8385  3.059480 19.292500  0.368724
101  1  0.8382  7.235830  7.895780 12.602400
102  1  0.8388  7.230390  7.896740  0.367595
103  1  0.8382  7.234480 19.293800 12.602600
104  1  0.8387  7.230130 19.292300  0.370216
105  1  0.8381 11.409700  7.897340 12.603100
106  1  0.8383 11.412200  7.898230  0.373027
107  1  0.8384 11.408100 19.292900 12.605300
108  1  0.8384 11.412800 19.291200  0.368551
109  1  0.8383 15.586400  7.894000 12.603600
110  1  0.8385 15.584300  7.895670  0.368529
111  1  0.8381 15.589300 19.293700 12.604900
112  1  0.8387 15.583600 19.293800  0.369346
113  1  0.8384  0.967966  3.928490 24.104200
114  1  0.8381  0.969215  3.930170 11.864300
115  1  0.8387  0.971986 15.323300 24.108300
116  1  0.8385  0.968599 15.327600 11.865900
117  1  0.8386  5.145230  3.928640 24.103200
118  1  0.8385  5.143730  3.930480 11.866800
119  1  0.8385  5.141610 15.326500 24.104400
120  1  0.8386  5.143420 15.324500 11.868500
121  1  0.8386  9.322450  3.927350 24.101700
122  1  0.8381  9.321500  3.926650 11.868000
123  1  0.8389  9.324400 15.324900 24.109100
124  1  0.8384  9.323140 15.326900 11.867800
125  1  0.8385 13.496100  3.928690 24.105800
126  1  0.8387 13.500500  3.927380 11.866600
127  1  0.8382 13.494500 15.327600 24.103500
128  1  0.8386 13.497500 15.324300 11.868300
129  2 -0.5280  0.967261  3.910130  8.355980
130  2 -0.5288  0.968129  3.903490 20.597100
131  2 -0.5283  0.969009 15.305200  8.357100
132  2 -0.5283  0.969882 15.305100 20.593500
133  2 -0.5280  5.144890  3.907220  8.354650
134  2 -0.5293  5.146550  3.905300 20.598800
135  2 -0.5283  5.143580 15.301800  8.358420
136  2 -0.5286  5.142790 15.303700 20.594200
137  2 -0.5286  9.322090  3.906960  8.356710
138  2 -0.5290  9.320140  3.904840 20.595800
139  2 -0.5285  9.322270 15.302400  8.358640
140  2 -0.5275  9.322270 15.304400 20.592100
141  2 -0.5280 13.498400  3.907420  8.353110
142  2 -0.5288 13.496900  3.906080 20.598500
143  2 -0.5284 13.497000 15.303200  8.359220
144  2 -0.5286 13.498600 15.304300 20.593300
145  2 -0.5289  3.061090  7.918750  3.879790
146  2 -0.5279  3.056590  7.917330 16.120200
147  2 -0.5285  3.057760 19.309500  3.883740
148  2 -0.5284  3.057390 19.316100 16.118000
149  2 -0.5280  7.232650  7.917190  3.878740
150  2 -0.5276  7.232380  7.917480 16.120600
151  2 -0.5283  7.233760 19.314700  3.884010
152  2 -0.5282  7.232600 19.315000 16.119100
153  2 -0.5285 11.410600  7.920000  3.879450
154  2 -0.5278 11.410300  7.916280 16.122100
155  2 -0.5290 11.408000 19.313400  3.882710
156  2 -0.5286 11.410200 19.314800 16.118000
157  2 -0.5284 15.585400  7.917870  3.878780
158  2 -0.5276 15.584500  7.914980 16.121200
159  2 -0.5282 15.584800 19.311800  3.883110
160  2 -0.5285 15.587200 19.314800 16.119000
161  2 -0.5282  3.056610  9.603530  9.994050
162  2 -0.5283  3.056200  9.605860 22.232700
163  2 -0.5289  3.056580 21.002200  9.994190
164  2 -0.5285  3.058600 21.000700 22.233900
165  2 -0.5282  7.233620  9.606080  9.994870
166  2 -0.5280  7.232790  9.606530 22.233600
167  2 -0.5289  7.233720 21.003200  9.994990
168  2 -0.5278  7.230950 21.000200 22.233000
169  2 -0.5287 11.410900  9.603610  9.993810
170  2 -0.5286 11.409400  9.605550 22.235300
171  2 -0.5282 11.410300 21.003300  9.995360
172  2 -0.5285 11.411200 21.000500 22.234500
173  2 -0.5279 15.585600  9.605450  9.993740
174  2 -0.5278 15.586400  9.607460 22.234200
175  2 -0.5289 15.586800 21.000500  9.995240
176  2 -0.5277 15.586000 21.003400 22.233700
177  2 -0.5280  0.968306  2.216870  2.237950
178  2 -0.5279  0.968037  2.220850 14.469600
179  2 -0.5286  0.968512 13.614200  2.238150
180  2 -0.5279  0.968985 13.618000 14.470200
181  2 -0.5286  5.145110  2.217600  2.235400
182  2 -0.5277  5.144370  2.219070 14.469600
183  2 -0.5289  5.144410 13.617600  2.237150
184  2 -0.5285  5.142660 13.615800 14.472600
185  2 -0.5281  9.323690  2.218420  2.236700
186  2 -0.5285  9.322790  2.219400 14.469600
187  2 -0.5283  9.321870 13.616300  2.237820
188  2 -0.5287  9.322180 13.616800 14.470000
189  2 -0.5291 13.496900  2.218450  2.236030
190  2 -0.5279 13.497000  2.218910 14.470900
191  2 -0.5287 13.496200 13.615900  2.237540
192  2 -0.5288 13.501500 13.616700 14.472000
193  2 -0.4940  0.969910 10.829500  4.575660
194  2 -0.4931  0.967492 10.831800 16.811500
195  2 -0.4933  0.968384 22.225100  4.574300
196  2 -0.4940  0.968331 22.228700 16.810200
197  2 -0.4938  5.147580 10.830900  4.571630
198  2 -0.4939  5.144970 10.830000 16.811100
199  2 -0.4940  5.145320 22.225800  4.573730
200  2 -0.4936  5.145980 22.228300 16.812000
201  2 -0.4938  9.322790 10.830500  4.578590
202  2 -0.4932  9.320730 10.832800 16.806600
203  2 -0.4938  9.321310 22.229300  4.573280
204  2 -0.4933  9.321040 22.227800 16.810200
205  2 -0.4939 13.497700 10.830700  4.574260
206  2 -0.4936 13.498500 10.830200 16.809800
207  2 -0.4941 13.498800 22.225600  4.572080
208  2 -0.4940 13.501300 22.227800 16.811900
209  2 -0.4939  3.055360  0.995427  7.660530
210  2 -0.4949  3.057030  0.993999 19.899000
211  2 -0.4940  3.055900 12.392100  7.659940
212  2 -0.4942  3.058420 12.391000 19.899900
213  2 -0.4937  7.235150  0.994923  7.660860
214  2 -0.4944  7.232920  0.992727 19.899400
215  2 -0.4938  7.236460 12.391200  7.661790
216  2 -0.4941  7.228330 12.391500 19.897300
217  2 -0.4939 11.408800  0.994900  7.659560
218  2 -0.4942 11.410000  0.992663 19.900000
219  2 -0.4944 11.409400 12.391900  7.662120
220  2 -0.4939 11.410600 12.391800 19.898700
221  2 -0.4933 15.585200  0.993987  7.661500
222  2 -0.4941 15.586000  0.994086 19.897800
223  2 -0.4936 15.588300 12.393500  7.659840
224  2 -0.4940 15.585000 12.391800 19.899100
225  2 -0.4943  3.057210  5.132260  1.545780
226  2 -0.4937  3.054700  5.132150 13.779300
227  2 -0.4942  3.056950 16.527500  1.545150
228  2 -0.4938  3.057070 16.530700 13.778700
229  2 -0.4938  7.233170  5.133840  1.543250
230  2 -0.4934  7.233370  5.131880 13.780300
231  2 -0.4936  7.233920 16.530200  1.544650
232  2 -0.4937  7.234360 16.530200 13.779600
233  2 -0.4941 11.409600  5.132780  1.544630
234  2 -0.4929 11.411700  5.131370 13.780600
235  2 -0.4943 11.409400 16.527000  1.545300
236  2 -0.4940 11.411000 16.531900 13.782600
237  2 -0.4941 15.585100  5.130610  1.543160
238  2 -0.4931 15.588300  5.131140 13.779900
239  2 -0.4934 15.586100 16.529900  1.542990
240  2 -0.4934 15.587400 16.531300 13.779900
241  2 -0.4939  0.968398  6.695600 10.690700
242  2 -0.4938  0.969050  6.691330 22.929000
243  2 -0.4949  0.969938 18.089300 10.690400
244  2 -0.4929  0.968174 18.090800 22.931600
245  2 -0.4941  5.143990  6.692500 10.691100
246  2 -0.4943  5.143830  6.694070 22.928700
247  2 -0.4943  5.145400 18.088600 10.691100
248  2 -0.4942  5.145470 18.091200 22.930000
249  2 -0.4938  9.320260  6.696360 10.689900
250  2 -0.4936  9.323050  6.690520 22.927300
251  2 -0.4945  9.323090 18.090700 10.692600
252  2 -0.4933  9.322490 18.088800 22.929600
253  2 -0.4940 13.501300  6.691190 10.692500
254  2 -0.4944 13.497500  6.694770 22.931200
255  2 -0.4936 13.497700 18.089200 10.692400
256  2 -0.4944 13.500300 18.091000 22.927900
257  2 -0.6732  0.967406  9.975650  0.859894
258  2 -0.6740  0.968709  9.974580 13.092200
259  2 -0.6732  0.968958 21.372500  0.857621
260  2 -0.6749  0.970008 21.371100 13.095200
261  2 -0.6744  5.145680  9.973220  0.857797
262  2 -0.6739  5.146910  9.974550 13.093400
263  2 -0.6745  5.145070 21.370500  0.860189
264  2 -0.6737  5.144060 21.372100 13.093500
265  2 -0.6733  9.318570  9.975850  0.862244
266  2 -0.6738  9.323420  9.975200 13.092500
267  2 -0.6736  9.321540 21.369200  0.857805
268  2 -0.6745  9.321520 21.373500 13.094900
269  2 -0.6744 13.499500  9.973750  0.860876
270  2 -0.6739 13.499200  9.975200 13.093800
271  2 -0.6748 13.496900 21.369400  0.860302
272  2 -0.6741 13.497100 21.372800 13.095900
273  2 -0.6735  3.058900  1.850680 11.372000
274  2 -0.6741  3.057740  1.851410 23.611300
275  2 -0.6738  3.056710 13.247400 11.372900
276  2 -0.6749  3.056940 13.248600 23.611900
277  2 -0.6735  7.232630  1.851070 11.372000
278  2 -0.6736  7.233120  1.849920 23.611300
279  2 -0.6733  7.232960 13.246800 11.374200
280  2 -0.6731  7.233160 13.248800 23.611500
281  2 -0.6735 11.411300  1.849840 11.372600
282  2 -0.6739 11.409700  1.849970 23.611100
283  2 -0.6744 11.409300 13.249000 11.372100
284  2 -0.6745 11.408300 13.248300 23.612600
285  2 -0.6739 15.584900  1.850170 11.373200
286  2 -0.6731 15.586500  1.848450 23.611400
287  2 -0.6735 15.586000 13.248000 11.372800
288  2 -0.6732 15.586600 13.246500 23.612100
289  2 -0.6739  3.059290  4.275000  5.258440
290  2 -0.6746  3.057250  4.276810 17.497800
291  2 -0.6741  3.056890 15.673600  5.258830
292  2 -0.6742  3.057420 15.674500 17.494100
293  2 -0.6735  7.233050  4.275060  5.256970
294  2 -0.6744  7.231740  4.276970 17.497700
295  2 -0.6745  7.236290 15.674400  5.260980
296  2 -0.6739  7.231580 15.675100 17.494100
297  2 -0.6748 11.412400  4.276010  5.255570
298  2 -0.6746 11.411200  4.277280 17.498700
299  2 -0.6744 11.406400 15.672700  5.258650
300  2 -0.6738 11.410800 15.674700 17.494900
301  2 -0.6730 15.586100  4.276290  5.256090
302  2 -0.6742 15.585700  4.277660 17.497500
303  2 -0.6737 15.586700 15.675400  5.259280
304  2 -0.6739 15.588300 15.674800 17.495000
305  2 -0.6738  0.967100  7.549820  6.976040
306  2 -0.6727  0.968111  7.546810 19.218900
307  2 -0.6733  0.969992 18.947400  6.978770
308  2 -0.6734  0.969663 18.944500 19.215900
309  2 -0.6736  5.145410  7.549870  6.976800
310  2 -0.6737  5.146370  7.550290 19.219600
311  2 -0.6739  5.144970 18.945300  6.979210
312  2 -0.6744  5.143630 18.945200 19.217200
313  2 -0.6739  9.321160  7.547960  6.978480
314  2 -0.6733  9.319170  7.549790 19.217400
315  2 -0.6736  9.322660 18.947000  6.983610
316  2 -0.6734  9.321520 18.943400 19.213200
317  2 -0.6740 13.497100  7.547900  6.976290
318  2 -0.6739 13.499900  7.550130 19.219500
319  2 -0.6739 13.495800 18.944500  6.980770
320  2 -0.6743 13.497300 18.946900 19.217000

