Generated by pymatgen.io.lammps.data.LammpsData

216  atoms

  2  atom types

0.000000 18.096178  xlo xhi
0.000000 18.140645  ylo yhi
0.000000 18.233787  zlo zhi

Masses

1  208.9804
2   78.9600

Atoms

1    1  0.7430  1.058750  0.084310  1.151200
2    1  0.7476 18.100000  0.016839  6.854680
3    1  0.6897 18.192000 18.050200 13.095800
4    1  0.7218 -0.171234  5.601000  0.995275
5    1  0.8169  0.398239  5.685300  6.666270
6    1  0.7387  0.298793  5.557960 12.622700
7    1  0.7490  0.425795 12.005700  0.648528
8    1  0.7720  0.757625 11.899200  7.193930
9    1  0.7071 18.283500 11.956500 13.252600
10   1  0.7834  6.210990 -0.038008  0.423900
11   1  0.8866  6.166820 17.597300  6.308440
12   1  0.7855  6.229880 17.964800 12.966400
13   1  0.8726  5.992910  5.796040  0.359354
14   1  0.6171  5.929640  5.990870  6.916180
15   1  0.8860  6.430270  5.969170 13.029300
16   1  0.8231  6.176270 11.897600  0.558493
17   1  0.8108  6.651840 11.726900  6.598980
18   1  0.7191  6.336050 11.589300 12.871900
19   1  0.8321 12.670300 17.763300  0.592699
20   1  0.8164 12.359000 16.974800  6.230770
21   1  0.7344 11.803200 17.960500 12.260600
22   1  0.6953 11.219000  4.955300  0.017826
23   1  0.8233 12.540200  5.603050  6.383110
24   1  0.7975 12.432200  5.892120 12.769700
25   1  0.7160 11.892800 11.965700  0.609623
26   1  0.6600 12.496800 11.412700  6.512300
27   1  0.8968 12.309700 11.491700 12.750400
28   1  0.6206 17.617500  2.801410  4.188340
29   1  0.7516  0.274123  1.765210 10.312700
30   1  0.8117  0.450185  2.673850 15.442900
31   1  0.7538  0.502410  8.880430  3.309220
32   1  0.9113  0.337434  9.057890  9.351470
33   1  0.7144 -0.257157  8.321200 15.525500
34   1  0.7901  0.650097 14.411300  3.360470
35   1  0.7382 18.008400 14.727700  9.404430
36   1  0.7259  0.484307 14.691900 15.649600
37   1  0.8567  6.061210  2.690550  3.250960
38   1  0.7887  7.239430  2.919620  9.866320
39   1  0.7671  6.196740  2.977390 15.484300
40   1  0.8808  6.338680  8.507230  3.031440
41   1  0.7941  6.375790  8.893060 10.323400
42   1  0.7879  5.962300  8.830160 15.431000
43   1  0.7335  6.644170 15.117400  2.852750
44   1  0.7430  6.301010 14.540300  9.498180
45   1  0.8336  5.824700 14.852500 15.899700
46   1  0.7346 12.581100  2.762080  3.969600
47   1  0.8333 12.483800  2.513490  9.526140
48   1  0.7765 12.499200  2.125410 15.578500
49   1  0.8191 12.623700  8.471540  3.681690
50   1  0.7556 12.748400  8.030280  9.202860
51   1  0.7635 12.081000  8.900360 16.075100
52   1  0.6621 11.730100 14.033000  3.727050
53   1  0.7786 11.906100 14.078700  9.455150
54   1  0.8422 12.208300 15.070200 16.042500
55   1  0.6956  3.056100 18.247700  3.492860
56   1  0.7968  3.363660 17.791700  9.651270
57   1  0.7860  3.659500 17.656800 15.460200
58   1  0.7963  3.643930  5.481320  3.286110
59   1  0.6932  3.255150  5.588200  9.325900
60   1  0.8330  3.017890  5.408620 15.477200
61   1  0.7946  3.359480 11.807700  3.797290
62   1  0.8425  3.757350 11.721400 10.090200
63   1  0.7061  3.083070 12.012500 16.263400
64   1  0.7418 10.468700  0.140935  3.677860
65   1  0.7778  9.078040 17.923900  9.879220
66   1  0.8177  9.044870 17.701200 15.717700
67   1  0.8784  9.226780  5.350990  3.791680
68   1  0.7579  9.288220  5.934960  9.834780
69   1  0.6582  9.006180  5.019450 15.720700
70   1  0.7292  9.540400 11.289100  3.261270
71   1  0.7779  9.042860 11.507100  9.556610
72   1  0.8146  8.931230 12.080600 15.821900
73   1  0.8863 15.706500 17.549900  3.498840
74   1  0.7206 15.189800 17.186400 10.168300
75   1  0.7574 15.593800 17.858800 15.816600
76   1  0.7750 15.641600  5.507740  4.135020
77   1  0.7875 14.874300  5.751390 10.221600
78   1  0.7947 15.922000  5.260750 16.118700
79   1  0.7240 15.254700 11.063200  3.987620
80   1  0.8135 15.178900 11.376700  9.695030
81   1  0.7867 15.177300 12.015900 15.937300
82   1  0.7764  3.270040  2.301440  0.811994
83   1  0.7553  4.142990  3.067690  7.039090
84   1  0.7416  2.652250  3.117100 12.685500
85   1  0.7753  3.042510  8.658190  1.151350
86   1  0.7402  3.815770  8.200750  6.891470
87   1  0.6788  3.213480  9.306900 13.485700
88   1  0.7701  2.856280 14.848000  0.880967
89   1  0.7546  3.235250 15.069800  6.696840
90   1  0.8047  3.160840 14.970800 12.769500
91   1  0.6467  9.239400  2.716660  0.989787
92   1  0.7476  9.509270  2.516000  6.771840
93   1  0.7894  9.646180  2.640550 12.346600
94   1  0.8085  9.185550  8.313400  0.586145
95   1  0.8031  9.812150  8.857890  6.945210
96   1  0.8130  9.513360  8.809190 12.844900
97   1  0.6639  9.294720 15.081300  0.171806
98   1  0.7531  9.027960 14.583300  5.487780
99   1  0.7345  8.720590 15.080700 12.189700
100  1  0.8493 15.785200  2.208570  0.175327
101  1  0.6850 15.208900  1.700180  6.309220
102  1  0.8497 15.083600  2.720960 12.853100
103  1  0.7597 15.009000  8.248120  0.637926
104  1  0.8044 15.549900  8.374000  6.596860
105  1  0.8532 15.357400  9.014350 12.951900
106  1  0.8795 15.291000 14.794200  0.387202
107  1  0.7941 15.442700 14.057000  6.359270
108  1  0.7896 15.235600 14.597100 12.518000
109  2 -0.8278  3.484580 17.893700 18.402200
110  2 -0.7572  3.432060 17.719300  6.636080
111  2 -0.8000  3.423660 17.527400 12.476900
112  2 -0.7269  3.272350  5.594410  0.756913
113  2 -0.9219  3.453500  5.350270  6.435600
114  2 -0.8214  3.260720  5.406660 12.607300
115  2 -0.8335  3.126770 11.506800  0.675082
116  2 -0.6596  3.503230 10.894000  6.853970
117  2 -0.8258  3.253640 11.861900 12.588800
118  2 -0.7589  9.849750 17.909700  0.709271
119  2 -0.6517  9.478940 17.299300  6.405980
120  2 -0.8789  8.973250 17.815300 12.465000
121  2 -0.8166  8.835770  5.643340  0.996679
122  2 -0.7296  9.581540  6.040980  7.066770
123  2 -0.7765  8.956350  5.524870 12.884700
124  2 -0.8398  9.026210 11.436600  0.517645
125  2 -0.8474  9.329090 11.913300  6.225400
126  2 -0.7249  9.586560 11.707100 12.721500
127  2 -0.7594 15.423400 17.388700  0.942041
128  2 -0.7475 15.799200 17.061200  6.361540
129  2 -0.7535 14.580800 -0.518174 12.780200
130  2 -0.6416 15.003500  4.915390  0.580617
131  2 -0.7921 15.394000  5.720890  6.628290
132  2 -0.7633 15.668700  5.622300 13.190800
133  2 -0.6347 14.927800 11.421500  0.710955
134  2 -0.8779 15.358300 11.162200  6.808170
135  2 -0.7986 15.007500 11.375800 12.645100
136  2 -0.8298  3.626910  2.794720  3.891700
137  2 -0.6537  3.989970  2.324720 10.270300
138  2 -0.7935  3.083430  2.918840 15.806200
139  2 -0.7590  3.860900  9.060760  3.699520
140  2 -0.7455  3.867950  8.972150  9.892290
141  2 -0.7196  2.914670  8.160220 16.316500
142  2 -0.7900  3.461050 14.807600  3.686950
143  2 -0.7302  2.720910 14.547700 10.019400
144  2 -0.8560  3.225390 14.644000 16.136900
145  2 -0.8373  9.119900  2.727600  3.788330
146  2 -0.9399  9.882670  2.502230  9.653270
147  2 -0.8043  9.451570  2.038530 15.191000
148  2 -0.6553  9.187450  8.747380  3.656600
149  2 -0.8463  9.094680  8.922680  9.688290
150  2 -0.6908  9.147650  8.707950 15.417200
151  2 -0.7947  9.280860 15.803600  3.266440
152  2 -0.7691  9.032950 14.555800  9.363620
153  2 -0.7630  9.109120 14.795100 15.454300
154  2 -0.9001 15.188500  2.433560  3.649510
155  2 -0.7033 15.002900  2.809900  9.684000
156  2 -0.8546 15.604000  2.277050 15.619100
157  2 -0.8410 15.612800  8.020780  3.956530
158  2 -0.7343 15.825900  8.575560 10.101200
159  2 -0.7344 15.113000  8.901910 15.920600
160  2 -0.5455 15.272600 14.188100  2.994110
161  2 -0.7600 14.513700 14.235900  9.863080
162  2 -0.7939 15.291700 14.707900 15.694200
163  2 -0.8247  0.142535 17.373400  3.761710
164  2 -0.8498 18.014700 17.657100  9.581230
165  2 -0.7343  0.577744 17.857000 15.879900
166  2 -0.8147 18.674800  5.466140  4.060470
167  2 -0.6474  0.302431  6.414200  9.788310
168  2 -0.8176  0.359371  5.456420 16.367100
169  2 -0.7618  0.318268 11.685100  3.953450
170  2 -0.7569  0.250419 11.384200  9.867540
171  2 -0.8465 18.023700 11.903500 16.093900
172  2 -0.7165  6.035610  0.018832  3.587360
173  2 -0.6611  6.266830 17.968200  9.672370
174  2 -0.8632  6.337680 17.863000 16.129300
175  2 -0.7711  6.604090  5.523160  3.158190
176  2 -0.7867  6.319190  5.661660 10.054400
177  2 -0.8347  6.343540  5.788450 15.661100
178  2 -0.6816  6.167020 11.672400  3.586660
179  2 -0.9022  6.392880 11.988900  9.679410
180  2 -0.8160  6.365220 11.755900 16.122800
181  2 -0.7136 12.989400 16.990600  3.716390
182  2 -0.6972 12.121400 17.127800  9.088570
183  2 -0.7829 12.152900 17.520900 15.873600
184  2 -0.7445 11.913200  5.534030  3.845400
185  2 -0.8744 12.314400  5.661450  9.977220
186  2 -0.6400 12.656000  5.638970 15.738600
187  2 -0.8999 12.168700 10.903200  2.992590
188  2 -0.7719 12.501700 10.794700  9.813460
189  2 -0.7195 12.024300 12.013800 15.617600
190  2 -0.8090  0.137804  2.354270  0.472339
191  2 -0.6948  0.499956  2.829960  7.790650
192  2 -0.9816 -0.166885  2.799320 12.838400
193  2 -0.7645 18.018700  8.846870  0.850737
194  2 -0.6998  0.589776  8.657730  6.538670
195  2 -0.7086  0.420781  9.097520 12.800200
196  2 -0.7850  0.185704 14.933900  0.675167
197  2 -0.7894  0.437251 14.435100  6.549310
198  2 -0.7717  0.058139 15.443400 12.469700
199  2 -0.8241  5.987490  3.022260  0.624815
200  2 -0.7245  6.794550  2.071060  7.096630
201  2 -0.6854  6.505360  2.717730 12.924500
202  2 -0.7530  6.397490  8.587170  0.371672
203  2 -0.6294  6.719040  8.851620  6.036020
204  2 -0.8949  6.625860  8.792080 12.944000
205  2 -0.8159  5.814380 14.740700  0.374854
206  2 -0.7500  6.283080 14.830600  6.421950
207  2 -0.7997  6.008840 14.681300 12.999500
208  2 -0.7119 12.809800  2.353540  0.864602
209  2 -0.8499 12.685600  2.376590  6.796180
210  2 -0.8462 12.601200  2.549410 12.962400
211  2 -0.6641 12.144800  7.572940  0.589683
212  2 -0.8938 12.524100  8.219580  6.566130
213  2 -0.7751 12.588200  8.310150 13.171900
214  2 -0.8018 12.337700 14.794100  0.541759
215  2 -0.7961 12.796700 14.299100  6.266760
216  2 -0.6118 12.613200 14.144400 12.806200

