Generated by pymatgen.io.lammps.data.LammpsData

216  atoms

  2  atom types

0.000000 18.273575  xlo xhi
0.000000 18.094945  ylo yhi
0.000000 18.233787  zlo zhi

Masses

1  208.9804
2   78.9600

Atoms

1    1  0.8052 -0.155680 18.250500 18.225000
2    1  0.8091 -0.037651 18.236200  6.016740
3    1  0.8090  0.014367 18.041100 12.141700
4    1  0.7883 -0.241025  6.282620 18.205400
5    1  0.7878 -0.148634  6.104310  6.072440
6    1  0.8021 -0.107179  5.996830 12.209400
7    1  0.7683 -0.066948 12.369300 -0.071355
8    1  0.8041 -0.040392 12.225000  6.001460
9    1  0.7678  0.032453 12.053600 11.988400
10   1  0.7604  5.937700 18.185500 18.442300
11   1  0.7970  5.970020 18.153100  6.004370
12   1  0.7842  6.005340 18.126300 12.068900
13   1  0.7874  5.904440  6.271860 -0.028378
14   1  0.7801  6.018350  6.017880  6.046600
15   1  0.7657  6.026080  6.050380 12.141100
16   1  0.8310  6.072630 12.237400  0.269106
17   1  0.8076  6.011040 12.126900  6.079760
18   1  0.7841  6.183830 12.118900 12.135800
19   1  0.7824 12.047700 18.055000 -0.057894
20   1  0.7612 12.130400 18.147700  6.192840
21   1  0.8114 12.198600 18.084000 12.202300
22   1  0.7908 12.041000  6.156630  0.004023
23   1  0.7855 12.188500  6.109580  6.042790
24   1  0.8024 12.154900  6.009610 12.194600
25   1  0.7911 12.056900 12.198400  0.053916
26   1  0.7833 12.148500 12.131800  6.106620
27   1  0.7975 12.155700 12.006500 12.108800
28   1  0.7953 -0.138777  3.139280  3.030340
29   1  0.7759 -0.169666  3.115920  9.117290
30   1  0.7863 -0.182897  3.093720 15.106800
31   1  0.7990  0.088700  9.222270  3.136440
32   1  0.8159 -0.228882  9.256520  9.145670
33   1  0.7949 -0.060589  9.289940 15.032600
34   1  0.8300 -0.070141 15.214400  2.892990
35   1  0.7749 -0.121101 15.322900  8.981030
36   1  0.7655 -0.167320 15.111900 15.159500
37   1  0.7847  5.942720  2.957440  3.066550
38   1  0.7882  6.058460  3.201710  9.044150
39   1  0.7750  5.974650  3.078500 15.197700
40   1  0.7857  6.076670  9.042490  3.098970
41   1  0.8143  5.783990  9.252780  9.077500
42   1  0.7512  6.037450  9.164960 15.253000
43   1  0.7933  6.028140 15.059400  3.043080
44   1  0.7853  5.995350 15.197100  9.112400
45   1  0.8064  6.008750 15.137800 15.212800
46   1  0.7603 11.964700  2.865740  3.038070
47   1  0.8037 12.184700  3.102200  9.091530
48   1  0.7833 12.064600  3.087630 15.175600
49   1  0.7991 12.053600  9.073580  3.103790
50   1  0.7934 12.107400  9.193770  9.092800
51   1  0.7905 12.188700  9.137950 15.000100
52   1  0.8077 12.112100 14.989900  2.962270
53   1  0.7852 12.062600 15.277400  9.069900
54   1  0.8014 12.022500 15.055300 15.336300
55   1  0.7913  3.091800 18.069600  3.096670
56   1  0.7887  3.224530 18.187300  9.081550
57   1  0.7866  2.888620 18.072500 15.321200
58   1  0.7862  2.906480  6.016540  3.080000
59   1  0.7776  3.242770  6.071380  9.243910
60   1  0.7955  3.089600  5.999850 15.341400
61   1  0.7840  3.052480 12.082400  3.165660
62   1  0.7844  3.082450 12.140400  9.097560
63   1  0.8086  3.170270 11.969000 15.187500
64   1  0.7915  9.326540 18.009300  3.042550
65   1  0.7846  9.168760 18.198200  9.054540
66   1  0.7508  9.164030 -0.050618 15.178200
67   1  0.7939  9.244030  6.026460  3.328420
68   1  0.8141  9.426960  6.078180  9.060530
69   1  0.7825  9.211000  6.184490 15.250700
70   1  0.7872  9.140060 12.181100  3.151490
71   1  0.8100  9.232630 12.210300  9.079470
72   1  0.7860  9.216400 12.057800 15.322100
73   1  0.7882 15.222000 17.955600  3.045450
74   1  0.7921 15.278300 18.267000  9.169630
75   1  0.7947 15.328200 18.152600 15.221700
76   1  0.7839 15.214300  6.117040  3.147460
77   1  0.7925 15.242900  6.261690  9.167080
78   1  0.8051 15.206700  6.108350 15.252200
79   1  0.8045 15.269300 12.091800  3.092710
80   1  0.7836 15.179800 12.254800  9.365860
81   1  0.7920 15.211600 12.046500 15.329300
82   1  0.7718  3.077400  3.005790 -0.048187
83   1  0.8170  3.024600  3.217360  6.047790
84   1  0.7872  2.981190  2.979040 12.100900
85   1  0.7988  2.999210  9.205750 -0.137340
86   1  0.8052  3.056620  9.209800  6.091950
87   1  0.7791  3.149190  8.956800 12.102700
88   1  0.7716  3.272970 15.252800 -0.093824
89   1  0.7883  3.116310 15.246100  5.974650
90   1  0.7935  3.066890 15.073900 12.100100
91   1  0.7876  9.212200  3.135460 -0.087988
92   1  0.7652  9.205330  3.116620  6.141000
93   1  0.7993  9.266550  3.055560 12.235800
94   1  0.7885  9.181980  9.196720  0.047750
95   1  0.7800  9.378160  9.160770  6.089470
96   1  0.8172  9.221120  9.032980 12.050200
97   1  0.7941  9.073800 15.228100 -0.203412
98   1  0.8013  9.196990 15.150200  6.034090
99   1  0.7874  9.186600 15.120700 11.950300
100  1  0.7908 15.335800  3.213560  0.078751
101  1  0.7810 15.280300  2.998610  6.173780
102  1  0.8044 15.327500  3.003100 12.155200
103  1  0.7530 15.276300  9.212670 -0.011416
104  1  0.8280 15.316800  9.189850  6.018420
105  1  0.8001 15.263000  9.120320 12.143200
106  1  0.7790 15.056300 15.277100 -0.009302
107  1  0.7642 15.387000 15.006600  6.002020
108  1  0.8178 15.341200 15.058700 12.225800
109  2 -0.8282  2.957670  0.084975 -0.015234
110  2 -0.7926  2.995660 18.275700  5.967780
111  2 -0.7803  2.886210 18.083100 12.124100
112  2 -0.7776  2.905210  6.150870 -0.088208
113  2 -0.7751  2.965210  6.077360  6.163810
114  2 -0.7985  3.029190  6.087440 12.262200
115  2 -0.7620  3.042470 12.176800 -0.043247
116  2 -0.8069  3.074760 12.133000  6.249810
117  2 -0.7838  3.114830 11.998300 12.187400
118  2 -0.8000  9.046000  0.080604  0.000604
119  2 -0.7894  9.144590 18.149200  6.030420
120  2 -0.7776  9.203620 18.055000 12.074900
121  2 -0.7571  9.084760  6.128990  0.029251
122  2 -0.8269  9.224650  6.082990  6.193410
123  2 -0.7709  9.201730  6.046000 12.170500
124  2 -0.7940  8.933480 12.098900  0.091564
125  2 -0.8042  9.119210 12.046000  6.153240
126  2 -0.7784  9.181600 12.070400 12.036600
127  2 -0.7890 15.128100  0.134790 -0.000140
128  2 -0.7963 15.361000  0.094161  6.139290
129  2 -0.7796 15.255300 18.094900 12.200700
130  2 -0.8033 15.154200  6.241010  0.021701
131  2 -0.7933 15.130800  6.144970  6.153020
132  2 -0.7809 15.207800  5.994390 12.258500
133  2 -0.7995 15.054900 12.223700 -0.004770
134  2 -0.7971 15.392700 12.110900  5.930780
135  2 -0.7998 15.185600 12.129200 12.223900
136  2 -0.7881  2.985010  3.050980  3.067000
137  2 -0.7904  3.069860  3.101740  9.067190
138  2 -0.7797  2.890760  2.971780 15.171100
139  2 -0.7880  3.060800  9.138680  3.114600
140  2 -0.7952  2.979530  9.071030  9.107820
141  2 -0.7937  2.881880  9.055660 15.144200
142  2 -0.7984  2.968590 15.068600  3.014240
143  2 -0.7875  3.044760 15.199900  8.947780
144  2 -0.7699  3.107210 14.988000 15.009400
145  2 -0.7805  9.103470  3.108530  3.108650
146  2 -0.7874  9.075190  3.163530  9.215320
147  2 -0.7958  9.155220  3.152970 15.156000
148  2 -0.7988  9.172850  8.989460  3.163820
149  2 -0.7544  9.127360  9.069620  9.155150
150  2 -0.7968  9.242140  9.181800 15.140400
151  2 -0.7845  9.232700 15.083300  3.037430
152  2 -0.8134  9.061850 15.131800  8.985550
153  2 -0.8043  9.101790 15.016900 15.119500
154  2 -0.7703 15.246600  3.112420  3.029210
155  2 -0.8104 15.102200  3.038560  9.150590
156  2 -0.7869 15.137100  3.098700 15.039300
157  2 -0.7761 15.356300  9.123710  3.132270
158  2 -0.8006 15.191500  9.243380  9.105020
159  2 -0.8129 15.144700  9.099110 14.984000
160  2 -0.8108 15.391400 15.132000  2.933480
161  2 -0.7814 15.122700 15.140800  9.249820
162  2 -0.7849 15.125900 15.104800 15.145500
163  2 -0.7703 18.295300 18.170100  2.997670
164  2 -0.7889 18.215300  0.136269  9.097530
165  2 -0.8147 -0.058260 18.202600 15.201200
166  2 -0.7970 18.253600  6.205440  3.081920
167  2 -0.7573 18.180400  6.246910  9.233410
168  2 -0.7692 -0.074819  6.124820 15.241200
169  2 -0.7883 18.269200 12.177400  3.000890
170  2 -0.7914 18.184500 12.213700  9.029150
171  2 -0.7965  0.025049 12.122400 15.126600
172  2 -0.8182  6.057710 -0.097713  3.043300
173  2 -0.8040  6.060400  0.035231  9.154370
174  2 -0.7628  6.002690  0.010352 15.208000
175  2 -0.7614  5.940630  5.996990  3.078440
176  2 -0.7733  6.153160  6.121950  9.002040
177  2 -0.7947  6.078550  6.123850 15.206500
178  2 -0.8238  6.040850 12.170800  3.067530
179  2 -0.7866  6.058420 12.071500  9.045960
180  2 -0.7658  6.069460 12.115400 15.300600
181  2 -0.7994 12.194700 17.998900  3.074530
182  2 -0.8024 12.138100 18.110800  9.244590
183  2 -0.7910 12.209100 18.039900 15.236400
184  2 -0.7924 12.098500  6.181580  3.102430
185  2 -0.7995 12.275400  6.146530  9.216010
186  2 -0.7989 12.221300  6.084010 15.248600
187  2 -0.8019 12.144000 12.119700  3.053570
188  2 -0.8153 12.114300 12.092700  9.109070
189  2 -0.7913 12.254700 12.163300 15.233400
190  2 -0.7859 18.156400  3.096830  0.032997
191  2 -0.8029 18.265900  3.108740  6.049340
192  2 -0.8111 18.319700  3.041810 12.084500
193  2 -0.7707 18.406800  9.201180  0.010659
194  2 -0.7846 -0.052868  9.107760  6.112990
195  2 -0.7907 18.162500  9.084130 12.051800
196  2 -0.7863 18.143100 15.303400 -0.002509
197  2 -0.7922 18.288600 15.163000  5.936570
198  2 -0.7941 18.249300 15.181800 12.082700
199  2 -0.7639  6.123140  3.255280 -0.021867
200  2 -0.7997  5.959300  2.980720  6.070400
201  2 -0.7696  6.103410  3.022440 12.144600
202  2 -0.7906  6.051260  9.218250  0.072340
203  2 -0.7717  5.927090  9.181210  6.099810
204  2 -0.7801  6.204040  9.138230 12.040500
205  2 -0.8274  6.095240 15.080300  0.012921
206  2 -0.7929  6.089100 15.177900  6.051190
207  2 -0.7878  6.025160 15.121500 12.165700
208  2 -0.7717 12.215600  3.089660 -0.100020
209  2 -0.8074 12.188000  3.068400  6.116910
210  2 -0.7811 12.220900  3.030200 11.991300
211  2 -0.7721 12.068600  9.218130  0.017932
212  2 -0.8138 12.320300  9.193490  6.008840
213  2 -0.8126 12.140800  9.068490 12.067800
214  2 -0.8439 11.950700 15.172500  0.068779
215  2 -0.7956 12.133200 15.088500  6.024540
216  2 -0.7429 12.141700 15.106700 12.155700

