Generated by pymatgen.io.lammps.data.LammpsData

320  atoms

  2  atom types

0.000000 24.637781  xlo xhi
0.000000 17.058433  ylo yhi
0.000000 27.370788  zlo zhi

Masses

1  208.9804
2   78.9600

Atoms

1    1  0.7390 22.311200  1.367810  1.114660
2    1  0.7349 -1.569860  1.688300 14.488700
3    1  0.7273 21.509700  9.846750  0.844433
4    1  0.7450 -2.193070 10.249700 14.407600
5    1  0.7155  9.665400  1.110880  0.960271
6    1  0.7143  9.929910  1.379440 14.638700
7    1  0.6874  9.674220 10.135900  0.762107
8    1  0.7386 10.056400 10.069100 14.346500
9    1  0.7991  3.937800  6.295920 10.129100
10   1  0.6925  3.666060  6.249440 23.847100
11   1  0.8381  4.143140 14.070300 10.440400
12   1  0.7564  3.604300 14.405200 24.176300
13   1  0.8435 16.266900  5.774290 10.515600
14   1  0.7801 15.694600  5.833180 23.917500
15   1  0.7221 16.218500 14.670000 10.658100
16   1  0.7620 15.839500 14.424100 24.138200
17   1  0.7251  4.446440  5.669780  6.127350
18   1  0.7395  3.071010  5.760170 20.108800
19   1  0.7330  3.803150 14.413900  6.085240
20   1  0.7175  3.677160 14.472500 19.655500
21   1  0.7150 16.644500  5.616170  5.776770
22   1  0.6722 16.061200  5.619520 20.102100
23   1  0.7035 16.645100 14.615500  5.911830
24   1  0.6917 15.918200 14.680900 19.622500
25   1  0.7372 -2.286750  1.634460 10.105600
26   1  0.8421 -2.881190  1.377080 24.260400
27   1  0.7888 -2.079240 10.011200 10.267000
28   1  0.8082 22.146700 10.283700 24.132100
29   1  0.7514  9.873400 18.729000 10.579800
30   1  0.7358  9.726590 18.574700 24.067900
31   1  0.7404 10.024700 10.010800 10.298300
32   1  0.7677  9.851490 10.092800 23.859100
33   1  0.6813 21.377700  5.641410  0.569357
34   1  0.7163 -2.203080  6.050560 14.651700
35   1  0.7439 22.033400 14.311400  0.635649
36   1  0.7776 -1.768610 14.454700 14.216900
37   1  0.6910  9.830800  5.990460  0.833782
38   1  0.7263 10.393600  5.790330 14.648000
39   1  0.7644  9.616820 14.063400  0.909118
40   1  0.7298  9.927720 14.247800 14.385900
41   1  0.7665 -2.217700  5.936150 10.327600
42   1  0.7428 21.550900  5.929910 23.721600
43   1  0.7738 -2.182780 14.360500  9.912610
44   1  0.7656 -2.446030 14.056500 24.010100
45   1  0.7317  9.853040  5.627850 10.254100
46   1  0.7443  9.763730  5.437440 24.377900
47   1  0.7867  9.949160 13.996500 10.094400
48   1  0.7719  9.750830 14.282500 23.680700
49   1  0.6879  4.189220  1.456660  5.877140
50   1  0.7747  3.447410  1.447910 20.117200
51   1  0.7090  4.416430  9.893630  5.858580
52   1  0.6815  3.671560  9.702940 19.629800
53   1  0.6829 16.198500  1.808920  6.834050
54   1  0.7177 15.438200  1.499640 20.210700
55   1  0.7338 16.466200 10.406700  6.449400
56   1  0.7211 15.561100 10.413200 19.925500
57   1  0.7182  3.956530  1.419530 10.036100
58   1  0.6905  3.517100  1.253930 24.267300
59   1  0.7256  3.554930  9.987730 10.143600
60   1  0.6434  3.901910 10.007600 23.978000
61   1  0.7430 16.370100  1.381740 10.961200
62   1  0.7668 15.892100  1.582580 24.392600
63   1  0.6965 16.035900 10.538800 10.680300
64   1  0.7700 15.945400 10.318500 24.093600
65   1  0.7450  0.379418  7.419140 26.368200
66   1  0.8446  0.642495  7.942320 12.288000
67   1  0.7370  0.435799 16.508700 25.973700
68   1  0.7758  0.793125 16.487400 12.049700
69   1  0.7807 12.628200  7.974790 26.157600
70   1  0.8427 13.110700  7.892680 12.429800
71   1  0.8468 12.902200 16.377100 26.706400
72   1  0.7647 12.375000 16.497600 12.337200
73   1  0.8103  7.189550  8.073330 25.565500
74   1  0.7243  7.187280  8.151700 12.844200
75   1  0.8154  7.241210 16.549100 25.964900
76   1  0.7989  6.881450 16.570600 12.740900
77   1  0.7845 18.951800  7.964570 26.193900
78   1  0.7791 19.593500  8.287340 12.601600
79   1  0.7949 19.049200 16.362000 26.184100
80   1  0.8248 19.693400 16.409700 12.692000
81   1  0.7797  0.596855  3.671500 26.194200
82   1  0.8086  1.114770  3.744340 11.940100
83   1  0.8020  0.711730 11.857600 26.524400
84   1  0.8501  0.925011 11.999900 12.389900
85   1  0.7428 12.515500  3.298710 26.293400
86   1  0.7866 12.900200  3.645660 12.527900
87   1  0.8076 12.860000 11.806700 26.552900
88   1  0.8151 13.090500 12.109900 12.491300
89   1  0.8209  6.768600  3.376450 25.986900
90   1  0.7790  6.923780  3.367900 12.637400
91   1  0.7944  6.864920 12.156600 25.427700
92   1  0.7846  7.252250 12.292500 12.308600
93   1  0.7496 19.068300  3.726230 25.805200
94   1  0.7813 19.680500  3.791200 12.774100
95   1  0.7716 18.795700 12.505600 26.045400
96   1  0.7559 19.823200 12.251500 12.337700
97   1  0.7747  0.781488  7.696730  7.881300
98   1  0.7442  0.444250  7.583000 22.322000
99   1  0.7925  1.167690 16.529500  7.738450
100  1  0.8448  0.372678 16.450900 21.976300
101  1  0.7157 13.495600  7.335310  8.138550
102  1  0.7927 13.120200  7.947240 22.161900
103  1  0.7063 13.629000 16.129100  8.174020
104  1  0.8243 12.752600 16.297000 22.350500
105  1  0.7817  6.889000  8.032470  8.499970
106  1  0.8621  6.723630  7.692910 21.812500
107  1  0.8341  6.794000 16.339900  8.496650
108  1  0.7899  6.437070 16.471600 21.812300
109  1  0.8516 19.310800  7.899870  8.750700
110  1  0.7933 18.872900  8.266510 22.100600
111  1  0.8195 19.264500 16.554900  8.391910
112  1  0.7876 19.041200 16.526000 21.652000
113  1  0.7945  1.273450  3.681090  8.130220
114  1  0.8298  0.750668  3.658140 22.422600
115  1  0.7906  0.854751 11.835900  7.649550
116  1  0.7646  0.982477 11.962200 22.204400
117  1  0.7114 13.233200  3.811620  8.353100
118  1  0.7804 12.761200  3.543500 22.687300
119  1  0.7857 13.407700 12.294200  8.169610
120  1  0.7789 12.881200 12.423200 22.052600
121  1  0.8117  6.907170  3.361000  8.355000
122  1  0.8118  6.277010  3.820590 21.980400
123  1  0.7718  6.399560 11.828400  8.497840
124  1  0.7923  6.503170 12.061900 21.431000
125  1  0.8031 19.258300  3.650260  8.970270
126  1  0.6854 18.826800  3.603740 21.851800
127  1  0.8057 19.269700 12.224100  8.635050
128  1  0.7451 18.707900 12.471400 21.499000
129  2 -0.7202  6.724610  5.696570 10.253500
130  2 -0.7801  6.732580  5.847250 23.935500
131  2 -0.8185  6.999360 14.056900 10.330600
132  2 -0.7546  6.570290 14.507000 23.752400
133  2 -0.7966 19.294800  5.982290 10.724500
134  2 -0.8618 18.940300  5.770170 23.784000
135  2 -0.7981 19.593100 14.633000 10.490100
136  2 -0.7791 18.938300 14.417600 23.694100
137  2 -0.7983  0.992619  6.009880 10.251500
138  2 -0.8510  0.157201  5.637410 24.242000
139  2 -0.6688  0.969969 14.203100  9.968140
140  2 -0.7827  0.438896 14.399100 24.284900
141  2 -0.8151 13.460500  5.824590 10.384700
142  2 -0.8255 12.868000  5.621890 24.294400
143  2 -0.7847 12.834900 14.065900 10.220300
144  2 -0.7335 12.716200 14.403900 24.424000
145  2 -0.0797 20.517100  3.990350  3.757880
146  2 -0.0863 -0.194052  3.566120 17.496800
147  2 -0.0551 19.910500 12.271400  4.013330
148  2 -0.0754 -0.238363 12.713100 17.320500
149  2 -0.0724  8.007930  3.920360  3.879770
150  2 -0.0512 12.194100  3.890820 17.951500
151  2 -0.0899  7.904230 12.478000  3.947170
152  2 -0.0521 12.240200 12.479500 17.273600
153  2 -0.1192 19.937000  8.051810  3.798300
154  2 -0.1340  0.051789  7.781760 17.128000
155  2 -0.0909 20.640700 16.138100  3.986010
156  2 -0.0784  0.105606 16.885600 17.547500
157  2 -0.1156  8.205840  7.774980  3.585550
158  2 -0.0849 11.802000  8.184440 17.516200
159  2 -0.0257 10.109200 18.180900  4.531610
160  2 -0.0440 11.752200 16.814200 17.772600
161  2 -0.8553  6.694130  1.264220 10.467000
162  2 -0.8103  6.520820  1.360920 24.212200
163  2 -0.8606  6.982200 10.014100 10.435500
164  2 -0.8404  6.968560 10.077000 23.557500
165  2 -0.8168 19.445800  1.472360 10.786400
166  2 -0.8056 19.023500  1.307300 24.257500
167  2 -0.8460 19.568600 10.107600 10.459600
168  2 -0.7644 18.966600 10.175000 24.128500
169  2 -0.8282  0.871726  1.566020  9.912620
170  2 -0.7554 -0.087690  1.659250 23.972700
171  2 -0.8151  0.634399 10.092700 10.182400
172  2 -0.7671  0.342016  9.712090 24.171400
173  2 -0.7461 12.971600 18.714000 10.448800
174  2 -0.8132 12.774300 18.134100 24.438700
175  2 -0.7403 13.168600 10.111100 10.409200
176  2 -0.8098 12.690900 10.089600 24.066100
177  2 -0.1304  5.983630  3.970700  3.149400
178  2 -0.0539  1.769600  3.652230 16.797700
179  2 -0.0870  5.889430 12.388100  3.153640
180  2 -0.0809  1.912050 12.525000 16.708800
181  2 -0.0573 18.358500  3.672530  3.143910
182  2 -0.0991 14.222300  3.503470 17.102400
183  2 -0.1048 17.800800 12.079300  3.377740
184  2 -0.0770 14.314300 12.341900 16.757100
185  2 -0.0799  6.207150  7.850020  2.852250
186  2 -0.0581  2.133330  7.622970 16.338900
187  2 -0.0498  9.675870 16.137100  4.684160
188  2 -0.1166  2.187120 17.276800 17.083200
189  2 -0.0862 17.917000  8.003100  3.001550
190  2 -0.0722 14.149500  8.214500 16.897000
191  2 -0.0898 18.656700 16.573100  3.161300
192  2 -0.0737 13.586700 17.029400 17.026300
193  2 -0.4422  0.966227  5.178890  6.237680
194  2 -0.4065  0.208256  5.595410 20.073300
195  2 -0.4266  1.061380 14.655000  5.622150
196  2 -0.4015  0.758489 14.276800 20.055700
197  2 -0.3965 13.855200  5.665590  5.298090
198  2 -0.3744 12.749000  5.717510 20.438700
199  2 -0.3764 13.467600 14.619300  5.581450
200  2 -0.5160 13.052300 14.521100 20.241200
201  2 -0.3890  7.358160  5.900790  6.605430
202  2 -0.4287  5.964960  5.833520 19.781400
203  2 -0.4273  6.798750 14.475000  6.522980
204  2 -0.4357  6.751200 14.425700 19.554700
205  2 -0.3805 19.338300  5.572310  6.587640
206  2 -0.3313 19.145100  6.363510 19.511900
207  2 -0.3714 19.593500 14.136500  6.460380
208  2 -0.5071 18.684900 14.800500 19.594200
209  2 -0.9261 -1.956970  7.951590 12.433800
210  2 -0.8631 21.720700  7.860840 26.048800
211  2 -0.8734 -2.170580 16.418600 12.374300
212  2 -0.8789 -2.564790 16.097800 26.013500
213  2 -0.8748 10.319200  7.760420 12.385700
214  2 -0.9454  9.944910  7.924230 25.866700
215  2 -0.9343  9.742540 16.539700 12.572800
216  2 -0.8652  9.953890 16.384900 26.248400
217  2 -0.8430 -2.047170  3.891940 12.394800
218  2 -0.8107 22.226400  3.204930 26.274100
219  2 -0.8857 -1.948170 12.298000 12.374600
220  2 -0.8403 22.409100 12.075100 26.206500
221  2 -0.9013  9.802310  3.724890 12.543500
222  2 -0.9228  9.656490  3.387290 26.330800
223  2 -0.9041 10.269500 12.107800 12.469900
224  2 -0.8412  9.962600 12.462200 26.144700
225  2 -0.4671  0.524310  1.691130  0.857464
226  2 -0.4277  1.162240  1.631940 14.088900
227  2 -0.4336  0.043661  9.941750  0.921143
228  2 -0.4617  0.557187 10.234800 14.431500
229  2 -0.4811 12.774800  1.446290  0.920254
230  2 -0.4253 12.820600  1.685820 14.514800
231  2 -0.4897 12.633400  9.796090  0.961856
232  2 -0.4693 12.687800 10.171800 14.464200
233  2 -0.3967  6.578720  0.956366  0.928909
234  2 -0.4667  7.022070  1.269960 14.865500
235  2 -0.4618  6.927760 10.240700  0.142537
236  2 -0.4859  7.114000 10.337100 14.592700
237  2 -0.3938 19.090200  1.635060  0.642134
238  2 -0.4398 20.234900  1.957320 14.845500
239  2 -0.4143 18.624200 10.219200  0.618294
240  2 -0.4840 19.749500 10.352300 14.556500
241  2 -0.9353  3.893470  7.964110  8.067500
242  2 -0.9601  3.810100  7.840020 21.695300
243  2 -0.8838  3.923700 16.012400  8.322490
244  2 -0.8960  3.297230 16.422700 21.933700
245  2 -0.7989 16.432700  7.807550  8.814200
246  2 -0.8718 15.977200  7.805730 21.943400
247  2 -0.9211 16.531500 16.316600  8.616500
248  2 -0.8504 15.998100 16.751900 22.098700
249  2 -0.8885  4.205600  3.746880  7.980770
250  2 -0.8956  3.491370  3.724490 22.107200
251  2 -0.8756  3.789200 12.161500  8.367710
252  2 -0.8901  3.901710 12.257100 21.905700
253  2 -0.8918 16.429900  3.781690  8.577990
254  2 -0.9112 15.665000  3.403660 22.254300
255  2 -0.8895 16.335500 12.552900  8.405080
256  2 -0.9105 15.791200 12.253100 22.261700
257  2 -0.3883  6.873010  5.695510  0.269501
258  2 -0.3869  7.619090  5.723630 15.181300
259  2 -0.3848  6.898040 14.156600  0.503559
260  2 -0.4417  6.657730 14.069800 14.226900
261  2 -0.3985 18.571400  5.748280  0.727721
262  2 -0.4130 19.480500  6.292730 14.691900
263  2 -0.4648 19.106600 14.223500  0.881775
264  2 -0.4616 20.106800 14.505800 14.579900
265  2 -0.3786 -0.412746  5.894110  1.501570
266  2 -0.3600  1.079610  5.853060 14.103400
267  2 -0.3889  0.357766 14.301500  1.125700
268  2 -0.4110  0.985979 14.447300 14.176900
269  2 -0.2938 12.964700  5.710140  1.315780
270  2 -0.4211 13.206000  5.641990 14.489100
271  2 -0.4247 12.502700 13.884100  1.254810
272  2 -0.4215 12.582400 14.389100 14.599700
273  2 -0.4952 -2.404170  3.785220  8.499760
274  2 -0.4083 -2.831080  3.407170 21.934900
275  2 -0.4690 22.287700 12.160900  8.201500
276  2 -0.4148 -2.013850 12.356600 21.907900
277  2 -0.4748 10.131400  3.469330  8.349190
278  2 -0.5088  9.532640  3.655640 22.315000
279  2 -0.3977 10.347600 11.994200  8.120430
280  2 -0.4314  9.485380 12.024500 21.642100
281  2 -0.4997 -2.231080  8.056120  8.313160
282  2 -0.4711 -2.995560  8.605330 22.110100
283  2 -0.4128 22.408900 16.386200  7.861550
284  2 -0.4385 -2.538350 16.646100 21.969900
285  2 -0.4230 10.173100  7.713070  8.224230
286  2 -0.3749  9.786810  7.698230 22.014100
287  2 -0.4133 10.085900 16.382700  8.609070
288  2 -0.5061  9.609730 16.313900 22.089700
289  2 -0.4592  6.914270 18.395100  6.233300
290  2 -0.4884  6.070970  1.686750 19.949400
291  2 -0.4441  7.155920  9.991950  6.290870
292  2 -0.3821  7.089950  9.515610 19.869200
293  2 -0.4739 18.819100  1.631970  6.531910
294  2 -0.3577 18.609800 18.906200 19.113200
295  2 -0.4389 19.297800  9.964310  6.792660
296  2 -0.4586 18.127100 10.474400 19.524500
297  2 -0.4680  1.366950  1.326650  5.807440
298  2 -0.4378  0.649490  1.696000 20.342400
299  2 -0.4769  1.490510 10.085900  5.567040
300  2 -0.3768  0.401009  9.984200 20.291400
301  2 -0.3550 13.067600 18.674200  6.103980
302  2 -0.3819 12.457400  1.338050 20.460600
303  2 -0.4542 13.904300 10.415400  6.083730
304  2 -0.4036 12.604600 10.286200 20.225300
305  2 -0.4842  4.063260  3.845180 11.953900
306  2 -0.5148  3.618190  3.902390 25.780600
307  2 -0.4487  3.741340 11.941300 12.381100
308  2 -0.4028  3.997260 12.347000 26.289600
309  2 -0.4357 16.521500  3.666630 12.614300
310  2 -0.3912 16.069500  3.713320 26.348300
311  2 -0.4201 16.512800 12.461800 12.937500
312  2 -0.5206 16.001500 12.316600 26.050300
313  2 -0.4217  3.774070  7.681580 12.472000
314  2 -0.4245  3.974540  8.154250 26.295300
315  2 -0.4338  3.630310 16.114700 12.398300
316  2 -0.4382  4.137630 15.988400 26.208100
317  2 -0.3912 15.933600  8.074040 12.698100
318  2 -0.4712 15.907400  7.669980 25.874900
319  2 -0.4593 15.678800 16.519600 12.716400
320  2 -0.4205 15.991800 16.230900 26.603600

