Generated by pymatgen.io.lammps.data.LammpsData

360  atoms

  2  atom types

0.000000 16.677463  xlo xhi
0.000000 21.699897  ylo yhi
0.000000 28.493178  zlo zhi

Masses

1  208.9804
2   78.9600

Atoms

1    1  0.7730  1.716100 12.846700 20.821300
2    1  0.8118  2.911580 16.677800 21.015300
3    1  0.7707  1.842040  5.934400 20.761700
4    1  0.8032  3.924840  9.539560 20.909900
5    1  0.8028  5.616500 13.344900 20.889100
6    1  0.8114  8.478890 17.548000 20.617400
7    1  0.7415  1.193620 20.260400 20.589800
8    1  0.6956  3.909410  2.474550 20.578600
9    1  0.7067  6.160370  6.062290 20.299000
10   1  0.8195  8.065440  9.581200 21.097200
11   1  0.8052 10.038600 13.336800 20.134300
12   1  0.8466 12.018700 17.204200 20.556200
13   1  0.8817  5.660510 20.033700 20.518600
14   1  0.7839  8.063630  2.778670 20.876500
15   1  0.8755 10.037300  6.125770 20.970200
16   1  0.7996 12.163800  9.713430 20.011300
17   1  0.7638 14.263700 13.505900 20.141900
18   1  0.7184 15.876700 16.993700 20.188800
19   1  0.9541  9.658050 20.636700 23.244500
20   1  0.8582 12.142800  2.650550 21.199200
21   1  0.7375 14.330200  5.779730 20.672900
22   1  0.7935 16.246900  9.978750 20.485400
23   1  0.8658 13.849400 20.621800 20.527000
24   1  0.8409 16.298100  2.589350 20.843600
25   1  0.8664  1.586520 13.057500 26.660200
26   1  0.8449  3.743800 16.605300 26.428000
27   1  0.8117  1.481930  5.408650 25.973000
28   1  0.7774  3.535100  9.591870 26.712300
29   1  0.8148  5.915100 13.227300 26.210700
30   1  0.9110  8.104030 16.918200 26.409200
31   1  0.8113  1.887550 20.490700 25.683900
32   1  0.7493  3.536260  2.193310 26.358800
33   1  0.7463  5.342650  6.157770 26.642700
34   1  0.7477  7.839820 10.147300 26.850900
35   1  0.8152  9.835180 13.644300 26.674200
36   1  0.8282 12.021100 16.500400 26.340200
37   1  0.7573  5.800960 20.428700 26.394400
38   1  0.8072  7.610730  2.525940 26.488100
39   1  0.8090  9.142280  5.987600 26.518100
40   1  0.7148 11.758200 10.242600 26.405400
41   1  0.7257 13.729400 13.612500 26.760500
42   1  0.7366 16.439400 17.402700 26.580200
43   1  0.8088 10.485600 20.535800 26.944400
44   1  0.7751 11.877700  2.230760 26.385400
45   1  0.8254 13.807600  6.292950 26.792200
46   1  0.7989 16.533400  9.188000 26.028800
47   1  0.7084 14.587900 20.842400 26.123200
48   1  0.7071 15.457900  2.509860 26.477900
49   1  0.7598  1.727080 15.859700  2.272470
50   1  0.7420  4.135270 18.857400  1.501630
51   1  0.8428  1.768380  9.031880  2.613760
52   1  0.8088  3.602410 12.020700  1.450100
53   1  0.7844  5.408290 15.778600  1.383820
54   1  0.8621  7.915300 18.821400  1.329100
55   1  0.8305  2.081640  1.267750  1.825170
56   1  0.7974  3.390640  4.882130  1.213140
57   1  0.7362  5.696630  8.490890  0.985603
58   1  0.7832  7.095600 12.446200  1.531740
59   1  0.8611  9.759930 15.307300  1.513510
60   1  0.7838 12.217200 19.185500  1.380000
61   1  0.8364  5.699270  1.170360  1.304160
62   1  0.7896  8.108520  5.192380  1.512330
63   1  0.7205 10.282000  8.662360  1.828480
64   1  0.8254 12.180600 11.625500  1.452560
65   1  0.7785 13.743500 15.792300  1.128820
66   1  0.7939  0.267098 18.713100  1.235060
67   1  0.8502 10.154900  1.260620  0.999944
68   1  0.7843 11.910200  5.269970  1.867050
69   1  0.7836 14.596100  8.387440  1.590320
70   1  0.8341 16.175900 12.557600  1.335000
71   1  0.7927 14.350200  1.148910  1.559760
72   1  0.7447 16.308800  4.371670  2.105330
73   1  0.7569  1.816940 15.176100  8.004160
74   1  0.7527  3.868210 19.397600  6.492340
75   1  0.8856  1.643250  8.419710  7.961820
76   1  0.7804  3.429030 11.651500  7.854920
77   1  0.8490  5.823770 15.302500  7.257140
78   1  0.7792  7.751400 19.331700  6.902960
79   1  0.6109  2.626740  1.011180  7.358790
80   1  0.8282  4.009380  4.915360  8.129000
81   1  0.7890  5.914960  8.349570  7.919290
82   1  0.7091  7.780740 11.781500  7.479750
83   1  0.8295  9.854120 15.437200  7.520480
84   1  0.7597 12.512300 18.942900  5.620510
85   1  0.7384  6.745290  0.952047  7.212340
86   1  0.7741  7.935060  4.941980  7.731310
87   1  0.6768 10.172900  8.357370  8.115690
88   1  0.7835 12.230800 11.899500  7.889270
89   1  0.7839 13.819300 15.379200  7.918830
90   1  0.7608 16.597800 18.848900  7.618820
91   1  0.7561 10.524800  0.782671  7.228880
92   1  0.8346 12.697500  4.966780  7.436140
93   1  0.7837 13.707000  8.582910  7.480080
94   1  0.8222 16.195900 12.145100  8.113760
95   1  0.7943 14.702300  0.755834  6.677260
96   1  0.8034  0.224248  4.451980  7.039910
97   1  0.6461 16.113100 14.222200 11.533700
98   1  0.7629  0.812157 17.619700 11.846200
99   1  0.7979 16.500400  7.494920 11.368200
100  1  0.8347  1.284410 10.716700 12.319500
101  1  0.7181  3.999330 14.560100 10.972400
102  1  0.8273  5.887320 18.197700 10.889500
103  1  0.6737 16.567600 21.233600 10.339500
104  1  0.7858  1.746480  3.091140 10.733000
105  1  0.8452  3.960580  7.196410 11.192200
106  1  0.7237  5.463100 10.949300 11.091000
107  1  0.8639  8.026740 14.439900 11.550700
108  1  0.8359  9.948230 17.973100 11.026700
109  1  0.7457  4.113820  0.162817 10.422500
110  1  0.7447  6.584950  3.491120 11.084800
111  1  0.8808  8.205050  7.290750 11.193300
112  1  0.7409 10.384500 10.853600 11.046500
113  1  0.8413 11.948600 14.640100 11.600700
114  1  0.7554 13.754000 18.231700 10.744100
115  1  0.7349  8.037050 21.669200 10.665900
116  1  0.6785 10.124500  3.415920 10.953800
117  1  0.7294 12.924000  7.376060 10.501600
118  1  0.7854 14.259300 10.897800 11.230200
119  1  0.7702 11.899300 21.508200 10.735300
120  1  0.7379 14.487600  3.216350 10.334100
121  1  0.7889 16.599500 14.634600 16.068900
122  1  0.7909  1.169470 18.376800 17.227600
123  1  0.7737 16.382100  6.979310 17.374700
124  1  0.7853  1.943360 10.831700 17.345500
125  1  0.8289  3.344090 14.690700 17.612600
126  1  0.8205  5.163420 17.869700 17.057300
127  1  0.7675 16.275000  0.496304 17.402400
128  1  0.7785  2.078770  3.548070 16.490500
129  1  0.7169  4.237120  7.511220 17.434600
130  1  0.8096  5.805440 11.509300 17.708100
131  1  0.7461  7.715490 15.051500 17.527600
132  1  0.8419  9.941720 18.568700 17.231000
133  1  0.7588  3.699340  0.126969 17.688200
134  1  0.5533  5.902050  3.474890 17.451800
135  1  0.7606  7.922990  7.350080 17.179800
136  1  0.8211  9.450230 10.704300 17.440600
137  1  0.8556 11.870000 14.410600 17.616700
138  1  0.8454 13.831100 18.699500 16.576700
139  1  0.8308  7.497170  0.107311 16.829200
140  1  0.6835  9.597140  4.064190 16.768800
141  1  0.7657 12.465200  7.181180 17.248500
142  1  0.9114 14.147100  9.974520 15.934400
143  1  0.7452 11.643200  0.795718 16.720100
144  1  0.7612 13.863200  3.776680 17.221200
145  2 -0.8141 16.223200 14.634900 28.387100
146  2 -0.8934  2.187960 17.717700 28.280500
147  2 -0.6645 16.220300  6.991690  0.001622
148  2 -0.8489  1.828310 10.849400 28.190900
149  2 -0.8291  3.514610 14.264700 28.245400
150  2 -0.8250  6.115190 17.967000 27.992400
151  2 -0.6443  0.143709 21.549600 28.233200
152  2 -0.7944  1.384110  3.338410 28.369300
153  2 -0.7168  2.619850  7.223420 28.201000
154  2 -0.9452  5.676750 10.992200 28.041300
155  2 -0.8448  7.369110 14.841100 27.926800
156  2 -0.7858 10.301600 18.047000 27.672900
157  2 -0.7705  3.444240 21.535400 28.308500
158  2 -0.8155  5.573130  3.618630 28.353200
159  2 -0.9219  7.518700  7.563990 28.052400
160  2 -0.8476  9.832310 11.657800 28.326500
161  2 -0.9280 11.531300 14.494800 28.483900
162  2 -0.7841 13.916700 18.209700 27.788500
163  2 -0.7422  8.232670 21.371200 28.157000
164  2 -0.7970  9.805460  3.643070 28.031200
165  2 -0.8727 12.148600  7.647670  0.140794
166  2 -0.8157 14.376600 11.219400 28.288600
167  2 -0.8863 12.476900  0.159303 28.076600
168  2 -0.7638 13.770700  3.571810 28.226200
169  2 -0.3887  1.849770 15.086300 25.191600
170  2 -0.4105  3.816780 19.193700 24.563100
171  2 -0.4329  2.184870  7.954220 24.976400
172  2 -0.3166  3.889280 12.444300 24.592300
173  2 -0.3071  5.855630 15.759500 24.727700
174  2 -0.5353  8.142290 19.421300 25.305200
175  2 -0.4693  0.961130  1.410110 24.980700
176  2 -0.3740  3.688490  4.700520 24.732700
177  2 -0.3317  6.217630  8.272060 25.083400
178  2 -0.3526  8.179080 12.228600 24.577200
179  2 -0.3866 10.027600 15.735700 24.777400
180  2 -0.4359 11.814600 19.398900 24.835700
181  2 -0.4391  5.774240  1.503220 24.839400
182  2 -0.4122  7.411280  4.731480 25.147200
183  2 -0.3042 10.097600  8.458640 24.678800
184  2 -0.4318 11.705200 12.575700 25.025300
185  2 -0.3214 14.139500 15.558900 24.696400
186  2 -0.4304 16.548100 19.452700 24.439700
187  2 -0.4852  9.573430  1.620000 24.819500
188  2 -0.4048 12.036700  4.609930 25.338600
189  2 -0.2994 13.934400  8.623990 24.708800
190  2 -0.3199 16.477300 11.894400 24.908900
191  2 -0.4229 12.179600  0.432486 22.576400
192  2 -0.4333 15.562000  5.356960 25.012400
193  2 -0.3637 16.299800 14.485700 22.106400
194  2 -0.4302  1.610100 18.107400 22.472900
195  2 -0.4391 16.194800  7.329980 21.986000
196  2 -0.4183  1.661360 10.626800 22.451400
197  2 -0.3977  3.917050 14.893700 22.332700
198  2 -0.3125  6.383580 17.854000 22.278400
199  2 -0.4295 15.620200  0.020018 22.098900
200  2 -0.4209  1.677490  3.606490 22.389400
201  2 -0.2969  4.333830  7.019530 22.451300
202  2 -0.4047  5.792470 10.874800 22.558700
203  2 -0.3540  8.298300 14.824800 21.917000
204  2 -0.2960  9.837140 17.887000 22.993400
205  2 -0.3220  3.037360 21.373800 22.555000
206  2 -0.4139  6.090540  4.018010 22.048200
207  2 -0.2987  7.616390  7.037630 22.551900
208  2 -0.4451 10.579300 10.741400 21.753700
209  2 -0.3430 12.310200 15.190200 21.985600
210  2 -0.3433 13.450800 18.959300 22.504800
211  2 -0.3885  7.499820 21.466300 22.405000
212  2 -0.3969 10.047300  3.763780 22.517500
213  2 -0.2981 12.362500  6.834660 22.662800
214  2 -0.3096 14.469100 11.071700 22.231400
215  2 -0.3977  9.782280 20.042500 20.199300
216  2 -0.3719 13.925100  2.955920 23.228800
217  2 -0.8807  1.563860 12.670000  9.561500
218  2 -0.6660  4.176370 16.974400  8.711080
219  2 -0.7838  1.845070  5.938210  9.259880
220  2 -0.8838  3.743010  9.460360  9.237780
221  2 -0.8586  6.182510 13.809400  9.748790
222  2 -0.7099  8.058510 17.120300  9.362660
223  2 -0.7810  2.499720 20.039700  8.957830
224  2 -0.8927  4.413650  2.632730  9.371720
225  2 -0.8990  5.983820  6.194540  9.439670
226  2 -0.8777  8.025660  9.737240  9.856880
227  2 -0.7987  9.919600 13.664000  9.813120
228  2 -0.8022 11.894100 16.443000  9.348630
229  2 -0.8646  6.256080 20.450000  9.067120
230  2 -0.9308  8.343070  2.598140  8.814910
231  2 -0.8732 10.068800  6.216850  9.457010
232  2 -1.0320 12.607400  9.840690  9.475580
233  2 -0.9225 13.966400 13.305300  9.789240
234  2 -0.8670 16.495300 17.012000  9.342050
235  2 -0.7651 10.059800 20.164000  9.067190
236  2 -0.7689 12.758000  2.126400  8.408050
237  2 -0.8265 14.531500  5.975250  8.837660
238  2 -0.8206 16.609300  9.580670  9.867300
239  2 -0.7618 13.657500 20.289500  8.855830
240  2 -0.9105  0.242720  2.373450  8.775470
241  2 -0.2546 16.045100 14.105100  6.043310
242  2 -0.3416  1.729640 17.018200  5.945140
243  2 -0.3416 16.618300  8.025070  6.079110
244  2 -0.3584  1.295970 11.143400  6.363830
245  2 -0.4238  3.727730 14.088200  6.223840
246  2 -0.3210  5.927260 17.601700  5.128460
247  2 -0.3735 16.208100 20.668500  5.327050
248  2 -0.3899  2.463390  3.768290  5.637950
249  2 -0.3774  3.882950  7.342730  6.429310
250  2 -0.3239  5.645320 10.320500  5.918060
251  2 -0.4124  8.008010 14.312200  5.936950
252  2 -0.3990  9.520430 18.030600  5.236560
253  2 -0.4070  4.681430  0.351003  5.217670
254  2 -0.1806  6.291580  3.699410  5.505160
255  2 -0.2589  7.993480  7.416530  5.668450
256  2 -0.3946  9.949400 11.219200  6.111050
257  2 -0.3519 11.970700 14.379800  6.018350
258  2 -0.3776 15.073000 17.369700  5.916030
259  2 -0.3812  8.223080  0.104488  5.294420
260  2 -0.1937 10.258700  3.325550  5.570220
261  2 -0.4730 11.858500  7.071800  5.994690
262  2 -0.3829 14.156800 10.983300  6.297940
263  2 -0.3999 12.747000  0.155966  5.084530
264  2 -0.4022 14.337100  3.923400  5.793350
265  2 -0.3721  1.966950 12.616400  3.297360
266  2 -0.3761  4.200990 16.052300  3.680590
267  2 -0.4127  1.926330  6.097850  3.155240
268  2 -0.3872  4.207860  9.740350  3.251170
269  2 -0.3587  5.313000 13.005500  3.346880
270  2 -0.5472  7.496540 16.638800  2.482880
271  2 -0.4644  2.309960 20.154500  3.011480
272  2 -0.4255  3.993780  2.855270  2.770210
273  2 -0.3008  6.039330  6.104830  3.007730
274  2 -0.3392  7.873770  9.856460  2.910900
275  2 -0.3010 10.067500 12.936600  2.813340
276  2 -0.4594 11.737000 16.547500  2.946370
277  2 -0.4311  6.218110 20.360700  2.805940
278  2 -0.3757  7.761130  2.283820  2.295230
279  2 -0.4538  9.860170  5.924710  3.219050
280  2 -0.3665 12.697900 10.148200  3.316310
281  2 -0.3105 14.202100 13.411600  2.934030
282  2 -0.4919 15.692600 17.055300  2.585420
283  2 -0.4810 10.316500 20.639500  2.393730
284  2 -0.3767 12.080600  2.745520  2.837770
285  2 -0.4077 14.560600  6.152050  3.479550
286  2 -0.3881 16.148200 10.073800  3.205680
287  2 -0.3800 14.732000 20.326400  2.657240
288  2 -0.4012 16.091400  1.563090  3.812490
289  2 -0.8906  1.297980 15.515400 18.998200
290  2 -0.8588  3.698620 19.527100 18.927200
291  2 -0.8033  1.914670  8.565710 19.446000
292  2 -0.9494  3.504750 12.180500 19.319300
293  2 -0.7830  5.462730 15.855800 19.200400
294  2 -0.6830  7.525710 19.196600 18.509100
295  2 -0.8675  1.591330  1.432680 18.971500
296  2 -0.9052  3.655800  5.047710 18.552100
297  2 -0.8751  6.137710  8.877030 18.976500
298  2 -0.8666  8.043180 12.125500 19.161600
299  2 -0.8915 10.208200 16.092700 18.772800
300  2 -0.7338 12.383900 19.402200 18.495000
301  2 -0.8028  6.104380  0.575820 19.180100
302  2 -0.8886  8.568750  5.234280 19.075900
303  2 -0.8060  9.663410  8.047220 19.065200
304  2 -0.7836 12.007900 11.884200 18.730100
305  2 -0.8340 13.797100 15.868400 19.085200
306  2 -0.8917 15.943400 19.544900 18.528600
307  2 -0.5821 10.252700  1.022070 19.181600
308  2 -0.8357 11.950300  4.933540 19.100100
309  2 -0.8197 14.416400  8.875920 18.835600
310  2 -0.6391 15.978500 11.811600 17.836700
311  2 -0.7692 14.207700  1.621970 19.383600
312  2 -0.8583 15.873800  4.572660 18.838500
313  2 -0.4119  2.261880 13.282300 15.687100
314  2 -0.4903  2.864760 16.862300 15.944600
315  2 -0.3271  1.645580  5.848270 15.312900
316  2 -0.3107  4.079200  9.925420 15.586700
317  2 -0.3797  5.582550 13.866300 16.089500
318  2 -0.2797  7.389060 17.331000 15.038300
319  2 -0.3282  1.454870 20.643900 15.682400
320  2 -0.3191  3.822140  1.812920 15.198800
321  2 -0.3435  6.094990  5.890870 15.282800
322  2 -0.3553  7.318630 10.487600 15.823300
323  2 -0.4208  9.506130 13.369200 16.309800
324  2 -0.2984 11.506800 16.882400 15.271200
325  2 -0.3357  5.554150 20.536200 15.623600
326  2 -0.4993  7.344010  2.185160 15.374200
327  2 -0.3458 10.759600  6.203190 15.480000
328  2 -0.4317 11.690100  9.300710 15.817400
329  2 -0.3298 13.513600 13.632100 15.685800
330  2 -0.4228 16.064800 17.806300 15.205900
331  2 -0.4327 10.313700 20.620600 15.492100
332  2 -0.3745 12.366600  3.052080 15.042300
333  2 -0.3788 14.485400  6.471230 15.519500
334  2 -0.4606 16.542800  9.105820 15.728300
335  2 -0.2421 14.600500 21.198600 15.028100
336  2 -0.2443 15.870000  2.939630 15.167800
337  2 -0.3880  1.935140 15.261400 13.279700
338  2 -0.2269  3.072310 18.677100 12.874600
339  2 -0.4590  2.066350  8.311870 12.870900
340  2 -0.3393  3.728500 11.763200 13.051100
341  2 -0.3572  5.462890 15.986300 12.733400
342  2 -0.3711  8.095310 19.397400 12.579000
343  2 -0.3293  1.281410  0.772519 12.370600
344  2 -0.3165  3.734040  4.298660 12.519800
345  2 -0.3703  6.077050  7.792320 12.673400
346  2 -0.2087  7.114570 12.536100 13.305500
347  2 -0.4105 10.040500 14.808600 13.137500
348  2 -0.3946 12.053100 19.132800 12.570000
349  2 -0.2991  5.589170  0.570495 12.611500
350  2 -0.3796  8.266830  5.047050 12.826000
351  2 -0.3337 10.270600  8.414780 12.583800
352  2 -0.2808 12.261100 11.548100 13.495800
353  2 -0.4659 14.118100 16.138500 12.906200
354  2 -0.4053 15.732500 19.997600 12.297100
355  2 -0.5023 10.200700  0.886067 12.454500
356  2 -0.2625 13.010500  5.187060 12.491800
357  2 -0.4303 14.412800  8.858490 13.003000
358  2 -0.5191 15.971600 12.035200 13.445400
359  2 -0.2389 14.168200  1.615000 12.634000
360  2 -0.2632 16.318500  4.542220 12.607700

