Generated by pymatgen.io.lammps.data.LammpsData

320  atoms

  2  atom types

0.000000 24.452869  xlo xhi
0.000000 17.021629  ylo yhi
0.000000 27.370788  zlo zhi

Masses

1  208.9804
2   78.9600

Atoms

1    1  0.7503 22.098300 18.381700  0.437697
2    1  0.7508 22.097900 18.382200 14.121100
3    1  0.7507 22.098800  9.871960  0.435264
4    1  0.7503 22.098600  9.873240 14.122300
5    1  0.7507  9.872630  1.362290  0.436962
6    1  0.7505  9.872780  1.362090 14.122400
7    1  0.7508  9.872150  9.872380  0.435483
8    1  0.7506  9.871840  9.871590 14.121200
9    1  0.7930  3.759320  5.616950 10.355000
10   1  0.7930  3.759620  5.616840 24.040300
11   1  0.7930  3.758670 14.129000 10.354800
12   1  0.7931  3.758770 14.128700 24.040600
13   1  0.7930 15.985600  5.615000 10.355300
14   1  0.7929 15.985000  5.614100 24.039900
15   1  0.7929 15.985900 14.129100 10.354800
16   1  0.7930 15.985800 14.129200 24.039900
17   1  0.7507  3.758550  5.616800  6.405840
18   1  0.7508  3.758070  5.616680 20.091800
19   1  0.7507  3.759590 14.128000  6.406680
20   1  0.7507  3.760020 14.127700 20.092300
21   1  0.7506 15.986200  5.616910  6.406340
22   1  0.7505 15.986200  5.617110 20.091800
23   1  0.7504 15.984900 14.127400  6.407350
24   1  0.7504 15.984500 14.127400 20.092100
25   1  0.7928 22.099100 18.384500 10.174200
26   1  0.7930 -2.353590 18.383800 23.859200
27   1  0.7927 -2.354040  9.870190 10.174600
28   1  0.7929 -2.353720  9.869880 23.859700
29   1  0.7928  9.872200  1.360400 10.174100
30   1  0.7929  9.871550  1.359920 23.858900
31   1  0.7929  9.872660  9.872180 10.173600
32   1  0.7928  9.871890  9.872610 23.858600
33   1  0.7651 -2.354270  5.618500  0.469964
34   1  0.7657 22.098700  5.615680 14.155400
35   1  0.7622 -2.354010 14.129800  0.472605
36   1  0.7617 22.098400 14.127600 14.158300
37   1  0.7626  9.872010  5.614940  0.472610
38   1  0.7623  9.872280  5.615720 14.158100
39   1  0.7648  9.872600 14.125200  0.470474
40   1  0.7649  9.872200 14.127600 14.156000
41   1  0.7804 -2.353730  5.617460 10.241900
42   1  0.7805 -2.353990  5.617500 23.926400
43   1  0.7800 -2.353600 14.126700 10.235800
44   1  0.7801 -2.354190 14.126600 23.922200
45   1  0.7804  9.872420  5.618930 10.235600
46   1  0.7800  9.872140  5.619380 23.922100
47   1  0.7800  9.872080 14.128300 10.241500
48   1  0.7802  9.871920 14.127900 23.926300
49   1  0.7638  3.758970  1.362090  6.370950
50   1  0.7643  3.759210  1.362180 20.056900
51   1  0.7634  3.759300  9.872100  6.370760
52   1  0.7634  3.759210  9.872600 20.056200
53   1  0.7642 15.985200 18.383600  6.372530
54   1  0.7647 15.984900 18.382400 20.057900
55   1  0.7626 15.985100  9.872120  6.370980
56   1  0.7620 15.985100  9.871910 20.055300
57   1  0.7805  3.759180 18.381900 10.288700
58   1  0.7804  3.759440 18.382700 23.973400
59   1  0.7800  3.758920  9.871910 10.287800
60   1  0.7801  3.759040  9.871940 23.973500
61   1  0.7807 15.985400 18.383600 10.289700
62   1  0.7808 15.985600  1.362200 23.974100
63   1  0.7801 15.985200  9.872960 10.290900
64   1  0.7801 15.985200  9.873250 23.976600
65   1  0.8172  0.537987  7.798010 25.970600
66   1  0.8172  0.538281  7.798900 12.284500
67   1  0.8164  0.533772 16.307900 25.965400
68   1  0.8163  0.533273 16.306800 12.280500
69   1  0.8160 12.758800  7.796160 25.967700
70   1  0.8161 12.759800  7.795870 12.283600
71   1  0.8167 12.763500 16.308800 25.970200
72   1  0.8168 12.763500 16.309100 12.284000
73   1  0.8165  6.984400  7.797490 25.967300
74   1  0.8165  6.984330  7.797230 12.282000
75   1  0.8168  6.980910 16.308700 25.970300
76   1  0.8169  6.980710 16.308400 12.283300
77   1  0.8168 19.206500  7.796930 25.971200
78   1  0.8168 19.207000  7.797510 12.285500
79   1  0.8163 19.210500 16.308300 25.965700
80   1  0.8161 19.211700 16.307300 12.281100
81   1  0.8170  0.537515  3.435020 25.970100
82   1  0.8171  0.538633  3.436000 12.284400
83   1  0.8164  0.532812 11.947800 25.967400
84   1  0.8163  0.532120 11.947100 12.279700
85   1  0.8165 12.760500  3.436530 25.964100
86   1  0.8165 12.760400  3.435690 12.280200
87   1  0.8170 12.763400 11.947100 25.968100
88   1  0.8168 12.762000 11.948500 12.283200
89   1  0.8165  6.984500  3.436500 25.964500
90   1  0.8164  6.984180  3.435960 12.280200
91   1  0.8170  6.981570 11.946400 25.967500
92   1  0.8171  6.981600 11.946500 12.282600
93   1  0.8170 19.206700  3.435490 25.970000
94   1  0.8172 19.205400  3.435630 12.285300
95   1  0.8161 19.212600 11.949500 25.967800
96   1  0.8160 19.212700 11.948400 12.280300
97   1  0.8168  0.869812  7.692160  8.244740
98   1  0.8166  0.869806  7.691370 21.930900
99   1  0.8162  0.869381 16.202800  8.244110
100  1  0.8164  0.869060 16.203100 21.930000
101  1  0.8161 13.097700  7.693360  8.247560
102  1  0.8162 13.098600  7.693970 21.932600
103  1  0.8172 13.095300 16.202100  8.243940
104  1  0.8173 13.093900 16.201600 21.928900
105  1  0.8162  6.648380  7.692380  8.245430
106  1  0.8164  6.648380  7.692460 21.929800
107  1  0.8169  6.648940 16.202100  8.243810
108  1  0.8170  6.649770 16.202100 21.929200
109  1  0.8168 18.873500  7.692390  8.247160
110  1  0.8164 18.872800  7.691940 21.933700
111  1  0.8164 18.875100 16.203100  8.244770
112  1  0.8168 18.876700 16.202600 21.929700
113  1  0.8168  0.868877  3.542530  8.245580
114  1  0.8170  0.868117  3.542430 21.930600
115  1  0.8163  0.870509 12.052000  8.246310
116  1  0.8163  0.869906 12.052000 21.930900
117  1  0.8167 13.094900  3.541760  8.244270
118  1  0.8166 13.094100  3.541980 21.928500
119  1  0.8166 13.098300 12.052300  8.246350
120  1  0.8166 13.098500 12.052700 21.932000
121  1  0.8164  6.648610  3.541520  8.245450
122  1  0.8165  6.648770  3.541820 21.930900
123  1  0.8166  6.647710 12.052700  8.244970
124  1  0.8167  6.647620 12.053000 21.931100
125  1  0.8171 18.876300  3.542780  8.244370
126  1  0.8172 18.877300  3.543010 21.928400
127  1  0.8161 18.872600 12.051300  8.247240
128  1  0.8158 18.871900 12.050800 21.931600
129  2 -0.8214  6.785480  5.616880 10.206900
130  2 -0.8216  6.785120  5.617090 23.892000
131  2 -0.8209  6.782570 14.127900 10.207800
132  2 -0.8209  6.782400 14.127800 23.893300
133  2 -0.8206 19.008500  5.616120 10.208500
134  2 -0.8207 19.008900  5.615230 23.893700
135  2 -0.8217 19.012600 14.128400 10.206100
136  2 -0.8215 19.012900 14.129200 23.891800
137  2 -0.8207  0.735944  5.617270 10.209000
138  2 -0.8207  0.735407  5.616550 23.894100
139  2 -0.8218  0.732048 14.127600 10.206700
140  2 -0.8215  0.732344 14.128000 23.892300
141  2 -0.8214 12.959000  5.615700 10.206700
142  2 -0.8215 12.958500  5.615710 23.891600
143  2 -0.8209 12.961900 14.128900 10.207600
144  2 -0.8208 12.962100 14.128400 23.893000
145  2 -0.1343 22.097800  3.486670  3.002800
146  2 -0.1341 22.097400  3.488420 16.688000
147  2 -0.1335 -2.352560 12.000800  3.009500
148  2 -0.1332 -2.353290 11.999800 16.699800
149  2 -0.1333  9.872690  3.490740  3.013450
150  2 -0.1335  9.872710  3.489930 16.698700
151  2 -0.1334  9.872080 11.996500  3.005900
152  2 -0.1335  9.871200 11.996700 16.690600
153  2 -0.1339 22.099200  7.746310  3.002870
154  2 -0.1338 -2.353110  7.748510 16.688600
155  2 -0.1336 -2.353920 16.255200  3.012960
156  2 -0.1337 22.098400 16.252500 16.698100
157  2 -0.1337  9.870610  7.745340  3.009480
158  2 -0.1338  9.870840  7.743860 16.695600
159  2 -0.1342  9.873100 16.253900  3.004110
160  2 -0.1342  9.873330 16.256800 16.689700
161  2 -0.8213  6.846320  1.359950 10.319800
162  2 -0.8213  6.847260  1.360030 24.005100
163  2 -0.8214  6.846820  9.872910 10.320300
164  2 -0.8215  6.846860  9.872850 24.005600
165  2 -0.8209 19.073900 18.385000 10.321100
166  2 -0.8208 19.075000 18.384900 24.005300
167  2 -0.8215 19.072800  9.870270 10.322100
168  2 -0.8212 19.071800  9.870960 24.008100
169  2 -0.8212  0.671987 18.384500 10.320100
170  2 -0.8213  0.671122 18.384200 24.005300
171  2 -0.8216  0.671454  9.870510 10.319900
172  2 -0.8212  0.671331  9.871140 24.006400
173  2 -0.8211 12.896400  1.360200 10.320600
174  2 -0.8209 12.895600  1.359990 24.005400
175  2 -0.8214 12.898400  9.873530 10.322300
176  2 -0.8216 12.898600  9.873410 24.007200
177  2 -0.1337  3.757640  3.490420  3.834130
178  2 -0.1337  3.755310  3.489700 17.520500
179  2 -0.1334  3.761850 12.000400  3.833410
180  2 -0.1334  3.762180 11.999800 17.518900
181  2 -0.1341 15.987300  3.490640  3.838710
182  2 -0.1343 15.989000  3.491300 17.526100
183  2 -0.1335 15.981400 11.999900  3.833740
184  2 -0.1338 15.983300 12.001000 17.519200
185  2 -0.1339  3.755600  7.744240  3.834110
186  2 -0.1338  3.757950  7.746380 17.519300
187  2 -0.1340  3.760870 16.255500  3.835610
188  2 -0.1339  3.761550 16.255100 17.521800
189  2 -0.1338 15.988900  7.743790  3.833740
190  2 -0.1337 15.987800  7.744530 17.517500
191  2 -0.1339 15.984100 16.254400  3.837890
192  2 -0.1339 15.983800 16.251800 17.524500
193  2 -0.4154  0.796112  5.617760  6.319060
194  2 -0.4154  0.795950  5.616940 20.003900
195  2 -0.4151  0.796101 14.126400  6.318140
196  2 -0.4153  0.796458 14.128100 20.003600
197  2 -0.4155 13.023400  5.618210  6.320000
198  2 -0.4154 13.023400  5.619850 20.004700
199  2 -0.4154 13.024200 14.126100  6.318810
200  2 -0.4154 13.022900 14.125800 20.004100
201  2 -0.4153  6.722450  5.616150  6.318900
202  2 -0.4153  6.721960  5.616460 20.004500
203  2 -0.4154  6.721630 14.127900  6.317920
204  2 -0.4155  6.721830 14.126800 20.003900
205  2 -0.4154 18.947700  5.618980  6.319340
206  2 -0.4153 18.947900  5.618830 20.003900
207  2 -0.4152 18.947100 14.125500  6.318670
208  2 -0.4152 18.947500 14.126300 20.003900
209  2 -0.9429 22.099800  7.776500 12.186400
210  2 -0.9432 22.099400  7.776800 25.871800
211  2 -0.9440 -2.354210 16.287700 12.185600
212  2 -0.9440 22.098700 16.287000 25.870700
213  2 -0.9439  9.871640  7.775630 12.183400
214  2 -0.9441  9.871010  7.777290 25.869700
215  2 -0.9432  9.872340 16.289100 12.187800
216  2 -0.9429  9.871980 16.288000 25.872300
217  2 -0.9426 22.098100  3.456270 12.187400
218  2 -0.9425 22.098500  3.457150 25.870300
219  2 -0.9445 22.099100 11.968300 12.184400
220  2 -0.9440 22.099800 11.967200 25.869300
221  2 -0.9435  9.872250  3.458620 12.184500
222  2 -0.9435  9.872230  3.457210 25.871100
223  2 -0.9432  9.871370 11.966200 12.186600
224  2 -0.9432  9.872260 11.966600 25.871800
225  2 -0.4153  0.609832 18.379600  0.523346
226  2 -0.4154  0.608476 18.380300 14.208300
227  2 -0.4155  0.607382  9.873420  0.524623
228  2 -0.4152  0.609257  9.875890 14.209600
229  2 -0.4152 12.835200  1.364650  0.524142
230  2 -0.4152 12.835400  1.363820 14.209700
231  2 -0.4152 12.834400  9.870510  0.524006
232  2 -0.4154 12.833500  9.871180 14.209500
233  2 -0.4154  6.909620  1.364440  0.522957
234  2 -0.4154  6.908710  1.362890 14.208300
235  2 -0.4152  6.910320  9.871900  0.524346
236  2 -0.4152  6.909630  9.870350 14.209700
237  2 -0.4152 19.134700 18.379800  0.524211
238  2 -0.4154 19.136300 18.380100 14.209700
239  2 -0.4154 19.137000  9.875290  0.524504
240  2 -0.4151 19.135700  9.875650 14.210000
241  2 -0.9437  3.758040  7.711420  8.341060
242  2 -0.9436  3.758630  7.711400 22.026800
243  2 -0.9435  3.759900 16.223500  8.342360
244  2 -0.9432  3.760530 16.223200 22.028000
245  2 -0.9436 15.986500  7.711500  8.343980
246  2 -0.9439 15.985900  7.711840 22.029100
247  2 -0.9432 15.983900 16.225000  8.344420
248  2 -0.9429 15.984200 16.224600 22.029900
249  2 -0.9431  3.757930  3.520740  8.342610
250  2 -0.9431  3.757760  3.521590 22.027400
251  2 -0.9437  3.759640 12.033400  8.341200
252  2 -0.9436  3.759400 12.033400 22.027200
253  2 -0.9431 15.986500  3.520650  8.344100
254  2 -0.9430 15.986500  3.519960 22.029200
255  2 -0.9441 15.984600 12.032500  8.343630
256  2 -0.9443 15.984400 12.033000 22.029200
257  2 -0.4259  7.092250  5.614000  0.590945
258  2 -0.4255  7.090610  5.616590 14.277600
259  2 -0.4279  7.102540 14.122800  0.589672
260  2 -0.4279  7.102770 14.125600 14.274700
261  2 -0.4282 19.329800  5.617270  0.591351
262  2 -0.4288 19.332500  5.616240 14.275500
263  2 -0.4256 19.317600 14.130400  0.593256
264  2 -0.4249 19.315000 14.127100 14.279500
265  2 -0.4283  0.414519  5.618420  0.589646
266  2 -0.4286  0.412731  5.617220 14.274400
267  2 -0.4256  0.426859 14.130400  0.592380
268  2 -0.4250  0.429007 14.125400 14.277800
269  2 -0.4258 12.651900  5.612680  0.592119
270  2 -0.4256 12.653300  5.612600 14.278900
271  2 -0.4279 12.642100 14.123700  0.590767
272  2 -0.4279 12.641200 14.126700 14.276500
273  2 -0.4372 -2.355600  3.511220  8.218710
274  2 -0.4370 -2.355540  3.509860 21.902400
275  2 -0.4352 22.097900 12.020800  8.211070
276  2 -0.4353 22.097700 12.021200 21.897000
277  2 -0.4357  9.873420  3.509000  8.211170
278  2 -0.4359  9.873710  3.510810 21.897200
279  2 -0.4365  9.872750 12.023300  8.218060
280  2 -0.4366  9.873460 12.023300 21.903400
281  2 -0.4368 -2.354820  7.723410  8.218920
282  2 -0.4371 -2.354540  7.722450 21.904700
283  2 -0.4358 -2.354590 16.234400  8.211370
284  2 -0.4360 -2.354870 16.234600 21.897000
285  2 -0.4359  9.873130  7.724450  8.211960
286  2 -0.4357  9.872600  7.723770 21.897300
287  2 -0.4369  9.872870 16.234200  8.217450
288  2 -0.4372  9.872830 16.234500 21.902700
289  2 -0.4271  6.533620  1.361930  6.251280
290  2 -0.4276  6.531850  1.362490 19.937500
291  2 -0.4266  6.534900  9.873440  6.249580
292  2 -0.4268  6.534150  9.874820 19.936200
293  2 -0.4273 18.758400  1.362650  6.251290
294  2 -0.4278 18.755700 18.382600 19.937200
295  2 -0.4260 18.763900  9.871290  6.250810
296  2 -0.4254 18.766300  9.869520 19.934400
297  2 -0.4270  0.984358  1.364160  6.250440
298  2 -0.4275  0.986543  1.363520 19.937200
299  2 -0.4265  0.983384  9.872990  6.250740
300  2 -0.4267  0.983693  9.872000 19.936100
301  2 -0.4275 13.212600  1.360280  6.251870
302  2 -0.4279 13.214500 18.379700 19.937000
303  2 -0.4261 13.206800  9.873340  6.250220
304  2 -0.4256 13.204500  9.873180 19.935200
305  2 -0.4365  3.759370  3.468260 12.312700
306  2 -0.4365  3.758270  3.467540 25.997300
307  2 -0.4360  3.759020 11.977900 12.312200
308  2 -0.4363  3.758350 11.977700 25.997400
309  2 -0.4370 15.985600  3.468230 12.312600
310  2 -0.4371 15.986300  3.469090 25.996500
311  2 -0.4356 15.986000 11.978100 12.314900
312  2 -0.4356 15.985800 11.978700 26.001200
313  2 -0.4366  3.760000  7.765680 12.312400
314  2 -0.4365  3.759830  7.766270 25.998000
315  2 -0.4366  3.759150 16.275600 12.311900
316  2 -0.4365  3.759530 16.276800 25.997600
317  2 -0.4358 15.984800  7.766810 12.316100
318  2 -0.4356 15.985200  7.766810 26.001700
319  2 -0.4366 15.985100 16.276000 12.312400
320  2 -0.4368 15.984900 16.276300 25.996900

