Generated by pymatgen.io.lammps.data.LammpsData

320  atoms

  2  atom types

0.000000 24.318059  xlo xhi
0.000000 17.018325  ylo yhi
0.000000 27.370788  zlo zhi

Masses

1  208.9804
2   78.9600

Atoms

1    1  0.7435 21.533900  1.387580  0.671032
2    1  0.7546 -1.906460  1.466000 14.384700
3    1  0.7335 21.553100  9.883730  0.634493
4    1  0.7274 -1.807170  9.969880 14.400300
5    1  0.7362  9.499540 18.318600  0.639307
6    1  0.7408 10.226500  1.321920 14.307600
7    1  0.7462  9.433620  9.967620  0.859416
8    1  0.7581 10.364300  9.785750 14.224900
9    1  0.7920  4.165720  5.543760 10.359800
10   1  0.7672  3.620690  5.752920 24.056200
11   1  0.7805  3.962090 14.041400 10.264700
12   1  0.7838  3.730060 14.093100 23.968500
13   1  0.7679 16.230600  5.589430 10.160100
14   1  0.7703 15.669300  5.592410 23.979600
15   1  0.7709 16.161200 14.077000 10.382500
16   1  0.7836 15.731600 14.186200 23.906000
17   1  0.7534  4.362480  5.624460  6.167310
18   1  0.7577  3.392690  5.702780 19.891200
19   1  0.7352  4.265970 14.175000  6.045460
20   1  0.7488  3.373280 14.225500 19.826900
21   1  0.7433 16.340000  5.570580  6.109100
22   1  0.7265 15.453500  5.484280 19.822700
23   1  0.7366 16.284000 14.020400  6.216110
24   1  0.7349 15.405100 14.106600 19.704700
25   1  0.7812 -2.149620 18.284400 10.218900
26   1  0.8090 21.883400 18.395600 23.832000
27   1  0.7915 -2.252920  9.952300 10.289900
28   1  0.7723 21.792600  9.905000 23.822200
29   1  0.7677 10.053900 18.276200 10.302600
30   1  0.7628  9.782170 18.503200 24.041400
31   1  0.7866 10.055700  9.877480 10.202700
32   1  0.7745  9.582690  9.918320 23.996600
33   1  0.7356 21.591700  5.625980  0.744660
34   1  0.7359 -1.837280  5.570030 14.359500
35   1  0.7176 21.523300 14.136900  0.748172
36   1  0.7511 -1.859010 14.123900 14.268000
37   1  0.7317  9.482520  5.668360  0.682229
38   1  0.7473 10.294000  5.580020 14.362200
39   1  0.7448  9.601320 14.176900  0.806179
40   1  0.7400 10.258200 14.032400 14.361500
41   1  0.7756 -2.113600  5.557220 10.204800
42   1  0.7851 21.883100  5.679610 23.926800
43   1  0.7807 -2.072230 14.017800 10.199600
44   1  0.7889 21.923300 14.167500 23.928100
45   1  0.7864 10.046600  5.538800 10.204000
46   1  0.7683  9.666070  5.645050 23.886300
47   1  0.8041  9.993150 14.125500 10.249700
48   1  0.7589  9.602390 14.081100 23.976100
49   1  0.7361  4.198050 18.396400  6.128940
50   1  0.7331  3.316260 18.309300 19.830200
51   1  0.7272  4.343470  9.834200  6.105090
52   1  0.7423  3.381820  9.882800 19.855800
53   1  0.7263 16.410600 18.342400  6.166620
54   1  0.7161 15.492100  1.355550 19.856000
55   1  0.7374 16.334800  9.842980  6.310370
56   1  0.7403 15.397100  9.812490 19.690500
57   1  0.7727  3.956170 18.459400 10.291000
58   1  0.7722  3.528150  1.499610 24.050500
59   1  0.7923  4.066810  9.879670 10.227300
60   1  0.7827  3.646860  9.876120 23.947900
61   1  0.7724 16.145300 18.403300 10.399300
62   1  0.8131 15.774500  1.305100 24.005600
63   1  0.7838 16.197300  9.865500 10.367500
64   1  0.7908 15.687200  9.867770 23.767900
65   1  0.7881  0.300728  7.913450 26.329700
66   1  0.8092  0.888286  7.757570 12.071100
67   1  0.7859  0.317147 16.258600 26.182400
68   1  0.8095  0.733287 16.210300 12.016500
69   1  0.8199 12.508700  7.680450 26.114600
70   1  0.8379 13.032300  7.639370 12.027300
71   1  0.8212 12.562300 16.156800 26.175000
72   1  0.8569 13.037700 16.169500 12.137900
73   1  0.8070  6.730460  7.695680 25.786700
74   1  0.8211  7.104210  7.731240 12.532900
75   1  0.8120  6.914300 16.422600 25.751300
76   1  0.7841  7.163710 16.206000 12.519800
77   1  0.8189 18.852500  7.737260 25.854200
78   1  0.7999 19.342700  7.783360 12.678300
79   1  0.8366 18.977800 16.334400 25.784800
80   1  0.7958 19.388600 16.259900 12.544500
81   1  0.7691  0.322613  3.538440 26.188900
82   1  0.8282  0.811777  3.604730 12.104800
83   1  0.8111  0.239636 12.035700 26.168700
84   1  0.7928  0.894049 12.039800 12.040000
85   1  0.8165 12.461100  3.410300 26.128200
86   1  0.8266 13.014400  3.475800 12.052900
87   1  0.7823 12.544900 11.952700 26.031200
88   1  0.8389 13.022700 11.887300 11.979500
89   1  0.7982  6.854310  3.453620 25.865500
90   1  0.7697  7.264110  3.429650 12.582700
91   1  0.8047  6.816240 12.048000 25.895500
92   1  0.7978  7.336970 11.889400 12.643900
93   1  0.8457 18.904800  3.477200 25.787800
94   1  0.8053 19.395400  3.520730 12.442100
95   1  0.8204 18.869700 12.085600 25.638600
96   1  0.8006 19.390700 11.924700 12.503000
97   1  0.8202  1.351010  7.843390  8.152420
98   1  0.8340  0.750960  7.825570 22.118200
99   1  0.8059  1.175970 16.304000  8.089600
100  1  0.7967  0.739790 16.214200 22.166600
101  1  0.7859 13.348000  7.887170  7.998840
102  1  0.8293 12.759700  7.702510 22.168400
103  1  0.7975 13.293400 16.195500  7.864160
104  1  0.8412 12.874100 16.328800 22.031300
105  1  0.8335  7.052880  7.762180  8.530040
106  1  0.8406  6.311480  7.742500 21.766000
107  1  0.8243  6.915930 16.220000  8.449910
108  1  0.8061  6.536400 16.350600 21.750600
109  1  0.8468 19.088400  7.856950  8.406950
110  1  0.7702 18.526600  7.737710 21.617600
111  1  0.8083 19.074400 16.326300  8.479500
112  1  0.8051 18.545500 16.179900 21.735300
113  1  0.7985  1.217770  3.473990  7.942940
114  1  0.8103  0.760288  3.503200 22.056100
115  1  0.7912  1.240460 11.931400  7.998020
116  1  0.8119  0.664245 12.052800 22.144000
117  1  0.8028 13.239500  3.483680  8.108140
118  1  0.8149 12.851400  3.379120 22.138400
119  1  0.8008 13.296800 12.125800  8.190940
120  1  0.7967 12.744400 12.124500 22.066300
121  1  0.8146  6.895220  3.449670  8.542340
122  1  0.8217  6.466900  3.506040 21.735000
123  1  0.8221  7.084310 12.088400  8.371310
124  1  0.8068  6.422940 11.858300 21.740600
125  1  0.7992 18.953400  3.407250  8.443620
126  1  0.7909 18.603300  3.494610 21.722500
127  1  0.8170 19.062000 11.875700  8.522060
128  1  0.7857 18.466100 11.995300 21.631200
129  2 -0.8304  7.118470  5.671940 10.466200
130  2 -0.8050  6.681420  5.666620 23.664000
131  2 -0.8065  7.156140 14.098700 10.463400
132  2 -0.8059  6.580710 14.218000 23.809100
133  2 -0.7946 19.263100  5.629230 10.401900
134  2 -0.8019 18.765400  5.558290 23.846800
135  2 -0.8022 19.243200 14.057400 10.517500
136  2 -0.8088 18.785400 14.173400 23.651200
137  2 -0.7912  1.133470  5.718950 10.085900
138  2 -0.7889  0.497832  5.744950 24.057200
139  2 -0.8258  0.957485 14.098200  9.946150
140  2 -0.8239  0.573400 14.094700 24.148600
141  2 -0.8131 13.063600  5.642150 10.029300
142  2 -0.8274 12.749500  5.648150 24.111900
143  2 -0.8117 13.021200 14.131300 10.170700
144  2 -0.8153 12.731300 14.233700 24.060200
145  2 -0.0820 20.061700  3.402500  3.764160
146  2 -0.0792 -0.282837  3.526110 17.506300
147  2 -0.0817 20.019300 11.953200  3.796430
148  2 -0.0696 -0.204158 12.087500 17.521900
149  2 -0.0675  7.944930  3.469880  3.810080
150  2 -0.0783 11.794200  3.382710 17.376500
151  2 -0.0948  7.982470 12.190800  3.788120
152  2 -0.0958 11.779700 11.898700 17.289800
153  2 -0.0850 20.001300  7.662190  3.783350
154  2 -0.0710 -0.245191  7.624610 17.507100
155  2 -0.0838 20.019600 16.127000  3.791920
156  2 -0.0754 -0.207713 16.136200 17.413200
157  2 -0.1022  7.925490  7.724840  3.720420
158  2 -0.0686 11.857400  7.711130 17.484500
159  2 -0.0730  7.961850 16.258900  3.823080
160  2 -0.0799 11.676000 16.392300 17.381100
161  2 -0.8301  7.070320  1.350460 10.397600
162  2 -0.8179  6.666180  1.459400 23.756000
163  2 -0.8046  6.928120  9.877280 10.448400
164  2 -0.8298  6.560190  9.755650 23.698900
165  2 -0.8363 19.138600  1.368720 10.446300
166  2 -0.7947 18.824700 18.377000 23.857000
167  2 -0.8420 19.120800  9.737780 10.522100
168  2 -0.7993 18.666700  9.907520 23.743800
169  2 -0.8074  0.935963 18.388800 10.106800
170  2 -0.8202  0.564911 18.410700 24.110500
171  2 -0.8170  1.019530  9.853460 10.004300
172  2 -0.7997  0.551124  9.952560 24.142300
173  2 -0.7935 13.103000 18.353600 10.126500
174  2 -0.8162 12.725100  1.314410 24.093100
175  2 -0.8291 13.140100  9.921260 10.140200
176  2 -0.8061 12.640500  9.751980 24.123500
177  2 -0.0925  5.872070  3.483460  3.142260
178  2 -0.0769  1.763900  3.582430 16.812700
179  2 -0.0885  5.939920 12.199100  3.100220
180  2 -0.0897  1.911880 12.145100 16.899300
181  2 -0.0865 17.989700  3.482300  3.143680
182  2 -0.0771 13.862500  3.409770 16.669400
183  2 -0.0709 17.931700 11.955700  3.114880
184  2 -0.0845 13.850000 11.962200 16.621800
185  2 -0.0840  5.825800  7.707450  3.032590
186  2 -0.0878  1.857400  7.572070 16.824900
187  2 -0.0775  5.890630 16.202400  3.114270
188  2 -0.0731  1.875270 16.215400 16.738400
189  2 -0.0824 17.918900  7.708440  3.110320
190  2 -0.0961 13.930100  7.680610 16.846400
191  2 -0.0849 17.930900 16.190900  3.067950
192  2 -0.0867 13.719200 16.421600 16.671400
193  2 -0.4336  1.570130  5.640210  5.907410
194  2 -0.4436  0.674345  5.729770 20.107400
195  2 -0.4424  1.420980 14.296300  5.947560
196  2 -0.4187  0.493299 14.250000 20.078700
197  2 -0.4222 13.721700  5.607970  5.717040
198  2 -0.4222 12.635000  5.486930 20.115500
199  2 -0.4776 13.507700 14.000700  5.992040
200  2 -0.4382 12.652600 14.187200 19.987300
201  2 -0.4319  7.035530  5.607170  6.449430
202  2 -0.4626  6.113340  5.692770 19.724300
203  2 -0.4514  6.954120 14.264400  6.323080
204  2 -0.4256  6.023260 14.118700 19.533200
205  2 -0.4235 19.174300  5.499060  6.442150
206  2 -0.4557 18.250300  5.690300 19.567300
207  2 -0.4026 19.112800 14.064400  6.377460
208  2 -0.4329 18.179000 14.043400 19.424600
209  2 -0.8846 -2.052690  7.784580 12.252400
210  2 -0.9076 21.749900  7.817340 25.952100
211  2 -0.9111 -2.046600 16.218100 12.297100
212  2 -0.9174 21.713400 16.358400 25.803100
213  2 -0.8904 10.105000  7.803370 12.166900
214  2 -0.8979  9.638570  7.916940 25.959600
215  2 -0.9114 10.089100 16.177100 12.244100
216  2 -0.9274  9.684110 16.233000 26.040600
217  2 -0.9129 -2.036260  3.405840 12.224400
218  2 -0.8945 21.718200  3.455270 25.934400
219  2 -0.9380 -2.068040 12.044100 12.246000
220  2 -0.9120 21.713300 12.074000 25.884500
221  2 -0.9215 10.089600  3.519230 12.337000
222  2 -0.9517  9.704200  3.567180 25.972900
223  2 -0.9210 10.133000 11.858300 12.292800
224  2 -0.9238  9.622470 11.980200 25.994900
225  2 -0.4522 -0.067056  1.372980  0.969056
226  2 -0.4009  0.840947  1.454480 14.274200
227  2 -0.4724  0.076549 10.033400  0.859859
228  2 -0.4251  0.945769  9.983860 14.270100
229  2 -0.4576 12.234200  1.436080  0.826354
230  2 -0.4486 13.000800  1.362320 13.978100
231  2 -0.4130 12.294900  9.917630  0.936248
232  2 -0.4406 13.073400  9.752850 14.011300
233  2 -0.4492  6.631410  1.334220  0.407235
234  2 -0.4470  7.395830  1.406980 14.712600
235  2 -0.4125  6.652980  9.980910  0.614687
236  2 -0.4488  7.500020  9.752880 14.634300
237  2 -0.4408 18.700900  1.365450  0.313722
238  2 -0.4804 19.657900 18.603100 14.450800
239  2 -0.4253 18.783900  9.845420  0.400644
240  2 -0.4465 19.612700  9.923250 14.663700
241  2 -0.8957  4.197380  7.688880  8.299520
242  2 -0.9413  3.560270  7.721600 21.990700
243  2 -0.8955  4.082380 16.292000  8.218890
244  2 -0.9035  3.607230 16.271400 21.912200
245  2 -0.9280 16.237300  7.753890  8.277390
246  2 -0.9095 15.555700  7.785580 21.854300
247  2 -0.8976 16.213800 16.181700  8.298480
248  2 -0.9261 15.630100 16.230700 21.930600
249  2 -0.9247  4.059760  3.451720  8.269090
250  2 -0.8991  3.584970  3.509870 21.992500
251  2 -0.9033  4.159630 11.924700  8.275360
252  2 -0.9136  3.613970 11.960300 21.919500
253  2 -0.9256 16.103300  3.418120  8.248700
254  2 -0.9239 15.684900  3.391020 21.999800
255  2 -0.9305 16.248700 11.979000  8.410720
256  2 -0.9133 15.630600 12.033900 21.897500
257  2 -0.4500  6.621600  5.677480  0.395361
258  2 -0.4396  7.422010  5.744560 14.621400
259  2 -0.4281  6.850090 14.219500  0.485135
260  2 -0.4346  7.375420 14.025900 14.659500
261  2 -0.4478 18.824200  5.575460  0.452230
262  2 -0.4347 19.709000  5.595300 14.742900
263  2 -0.4485 18.797800 14.222200  0.401152
264  2 -0.4383 19.624400 14.043200 14.600900
265  2 -0.4500 -0.056260  5.644570  1.090720
266  2 -0.4758  0.858729  5.638420 14.001100
267  2 -0.4390  0.120647 14.095000  0.923216
268  2 -0.4447  0.924290 14.217300 14.021000
269  2 -0.4369 12.323000  5.613570  0.833133
270  2 -0.4476 13.002100  5.604110 14.057900
271  2 -0.4396 12.410600 14.215200  0.953928
272  2 -0.4403 13.005200 14.193400 14.086500
273  2 -0.4475 -2.144510  3.356150  8.263740
274  2 -0.4542 22.025700  3.501140 21.955600
275  2 -0.4543 -2.278700 11.796000  8.251030
276  2 -0.4586 22.037900 12.116000 21.916900
277  2 -0.4471  9.953960  3.511050  8.220530
278  2 -0.4518  9.754770  3.499490 21.945700
279  2 -0.4955 10.149800 12.006200  8.328790
280  2 -0.4693  9.702450 12.034300 21.907900
281  2 -0.4390 -2.300520  7.880620  8.362370
282  2 -0.4581 22.088400  7.741810 21.940200
283  2 -0.4511 -2.239350 16.135300  8.234670
284  2 -0.4367 21.902600 16.227000 21.901400
285  2 -0.4446 10.043700  7.671220  8.158610
286  2 -0.4159  9.705470  7.683720 21.828400
287  2 -0.4557  9.989470 16.139100  8.261210
288  2 -0.4501  9.874770 16.350400 21.999000
289  2 -0.4057  7.089260 18.407300  6.423260
290  2 -0.4267  6.143810 18.270000 19.524700
291  2 -0.4355  7.188120  9.921630  6.472840
292  2 -0.4566  6.163190  9.901290 19.718700
293  2 -0.4224 19.272200  1.357250  6.384160
294  2 -0.4581 18.386000  1.335750 19.715800
295  2 -0.4573 19.147700  9.823390  6.506640
296  2 -0.4332 18.293900  9.827430 19.485100
297  2 -0.4440  1.353850 18.411400  5.945520
298  2 -0.4327  0.541541 18.338000 20.039500
299  2 -0.4587  1.473000  9.674500  6.008270
300  2 -0.4283  0.548389  9.951000 20.051800
301  2 -0.4442 13.518300  1.367130  5.946690
302  2 -0.4274 12.593200  1.445470 20.091000
303  2 -0.4374 13.597200  9.911860  5.872820
304  2 -0.4117 12.643300  9.856190 19.987500
305  2 -0.4664  3.715220  3.439900 12.322300
306  2 -0.4511  3.749250  3.498240 26.060800
307  2 -0.4571  3.933220 12.055800 12.247400
308  2 -0.4353  3.792030 12.116600 25.981600
309  2 -0.4573 16.044800  3.659870 12.283300
310  2 -0.4481 15.783300  3.296600 25.908000
311  2 -0.4664 16.009500 11.901600 12.352900
312  2 -0.4636 15.844100 11.852000 25.798100
313  2 -0.4683  4.095240  7.602430 12.271500
314  2 -0.4701  3.697250  7.926860 26.001500
315  2 -0.4497  3.906370 16.109100 12.218000
316  2 -0.4098  3.627950 16.281200 26.039800
317  2 -0.4372 15.982200  7.601250 12.346800
318  2 -0.4370 15.769300  7.720660 25.946300
319  2 -0.4623 15.941900 16.279800 12.354500
320  2 -0.4643 15.793700 16.332700 25.891200

