Generated by pymatgen.io.lammps.data.LammpsData

504  atoms

  2  atom types

0.000000 17.774667  xlo xhi
0.000000 21.986255  ylo yhi
0.000000 41.650458  zlo zhi

Masses

1  208.9804
2   78.9600

Atoms

1    1  0.8692 17.324000 14.793200 12.251400
2    1  0.8311  1.779880 18.330800 12.060100
3    1  0.8525 17.429100  7.355200 12.307100
4    1  0.8239  1.868130 10.896400 12.072800
5    1  0.8450  4.152480 14.726600 12.287600
6    1  0.8099  6.205660 18.270200 12.125300
7    1  0.8729 -0.198938 22.042700 12.445400
8    1  0.8531  1.891640  3.715350 12.313100
9    1  0.8697  4.169520  7.452550 12.341600
10   1  0.8272  6.449050 11.158900 12.215400
11   1  0.8616  8.591200 14.792900 12.356900
12   1  0.8671 10.939600 18.359200 12.313500
13   1  0.8373  4.272380  0.281615 12.276800
14   1  0.8332  6.283450  3.633690 12.210300
15   1  0.8500  8.539500  7.457510 12.089900
16   1  0.8293 10.545700 10.927100 12.167600
17   1  0.8483 12.945300 14.820900 12.314200
18   1  0.8498 15.250700 18.399600 12.322000
19   1  0.8357  8.565330 21.916600 12.042100
20   1  0.8375 10.890200  3.610540 12.312600
21   1  0.8429 12.999600  7.556250 12.251500
22   1  0.8370 15.152300 11.071400 12.032900
23   1  0.8546 12.936000 22.017900 12.328500
24   1  0.8192 15.254500  3.597000 12.120700
25   1  0.8738  1.952640 13.374200  1.498750
26   1  0.8479  4.116730 17.281500  1.643110
27   1  0.8561  1.964120  6.163780  1.487710
28   1  0.8649  4.109010  9.960610  1.643330
29   1  0.8412  6.347760 13.497400  1.394760
30   1  0.8289  8.465110 17.108900  1.585830
31   1  0.8649  1.996150 20.866500  1.534950
32   1  0.8743  4.204980  2.371750  1.463540
33   1  0.8666  6.393760  6.106060  1.666090
34   1  0.8365  8.661170  9.832670  1.754040
35   1  0.8571 10.870700 13.419400  1.459700
36   1  0.8507 13.132700 17.245900  1.634480
37   1  0.8634  6.233310 20.898500  1.438430
38   1  0.8748  8.566980  2.626420  1.467170
39   1  0.8672 10.819100  6.266980  1.476430
40   1  0.8421 13.268000  9.829960  1.743740
41   1  0.8445 15.240000 13.446500  1.400220
42   1  0.8457 17.394000 17.270000  1.484400
43   1  0.8522 10.808200 20.733300  1.500100
44   1  0.8179 12.946500  2.576970  1.711320
45   1  0.8677 15.452100  6.143710  1.565860
46   1  0.8650 17.666000  9.962350  1.539510
47   1  0.8818 15.263300 20.819900  1.484160
48   1  0.8619 17.598700  2.527450  1.531560
49   1  0.1840 -0.229644 14.897200  6.798610
50   1  0.2507  1.909140 17.101300  5.714880
51   1  0.1946 -0.307473  7.562690  6.708090
52   1  0.2197  1.897300  9.788450  5.937550
53   1  0.1865  4.218410 15.059700  6.723060
54   1  0.2314  6.495250 17.133900  5.839650
55   1  0.1893 17.396300  0.400411  6.742960
56   1  0.2176  1.919070  2.365300  5.972060
57   1  0.1874  4.242650  7.678620  6.572160
58   1  0.2012  6.428970  9.967200  6.024420
59   1  0.1967  8.589400 14.956800  6.696270
60   1  0.2410 10.800300 17.085500  5.753560
61   1  0.1875  4.068690  0.326977  6.661630
62   1  0.2184  6.304400  2.564210  6.017440
63   1  0.1717  8.491560  7.716620  6.821690
64   1  0.2126 10.744600  9.600030  5.931460
65   1  0.1822 12.930200 14.897800  6.840120
66   1  0.2230 15.177200 16.996900  5.820950
67   1  0.1827  8.633070  0.381393  6.817860
68   1  0.2310 10.724700  2.387080  5.843830
69   1  0.1851 13.032400  7.665820  6.736330
70   1  0.2270 15.258400  9.874650  5.808300
71   1  0.1754 12.944300  0.330571  6.715780
72   1  0.1954 15.207100  2.272920  6.046500
73   1  0.1855  1.958010 12.738900  7.047340
74   1  0.1770  4.094410 18.055100  7.501260
75   1  0.1824  2.085170  5.393450  6.967800
76   1  0.2002  4.189730 10.502100  7.741470
77   1  0.1892  6.374340 12.760800  7.156020
78   1  0.1962  8.608390 18.004700  7.630080
79   1  0.1815  1.775580 20.037400  6.791780
80   1  0.1973  4.030020  3.255810  7.781430
81   1  0.1807  6.295790  5.489050  7.104290
82   1  0.1829  8.719310 10.728000  7.694470
83   1  0.1841 10.838600 12.707000  6.657580
84   1  0.1852 12.955600 17.914800  7.575820
85   1  0.1789  6.463160 20.145200  6.995640
86   1  0.2014  8.564280  3.336370  7.718280
87   1  0.1793 10.902100  5.399030  6.936800
88   1  0.1929 13.004700 10.600200  7.703310
89   1  0.1710 15.295000 12.776300  6.943410
90   1  0.1896 -0.366473 17.871500  7.575300
91   1  0.1693 10.704600 20.049500  6.981750
92   1  0.1824 12.982600  3.249900  7.691070
93   1  0.1744 15.140700  5.239380  6.947770
94   1  0.1909 17.511300 10.566600  7.738680
95   1  0.1879 15.187700 20.043000  6.816690
96   1  0.2025 -0.280992  3.408260  7.729160
97   1  0.8534  1.944160 13.758700 26.033100
98   1  0.8563  4.046890 17.369000 26.124400
99   1  0.8514  1.846580  6.230420 26.102500
100  1  0.8428  4.042200 10.076400 26.311400
101  1  0.8655  6.316160 13.590300 26.190100
102  1  0.8481  8.526890 17.316000 26.274600
103  1  0.8786  1.879250 21.029700 26.219900
104  1  0.8720  4.117250  2.816250 26.169100
105  1  0.8795  6.305830  6.311970 26.188900
106  1  0.8322  8.484680 10.083200 26.279700
107  1  0.8699 10.558300 13.714200 26.305400
108  1  0.8364 13.051100 17.400200 26.341500
109  1  0.8284  6.246040 20.999800 26.135200
110  1  0.8410  8.464990  2.579220 26.103500
111  1  0.8524 10.766900  6.366240 26.018900
112  1  0.8350 13.104500 10.065900 26.350400
113  1  0.8425 15.229000 13.710200 26.230200
114  1  0.8268 -0.399418 17.574900 26.234100
115  1  0.8396 10.795500 20.917500 26.009400
116  1  0.8267 13.034100  2.811250 26.196800
117  1  0.8707 15.266000  6.271410 26.215900
118  1  0.8697 17.235800 10.065400 26.347300
119  1  0.8505 15.343900 21.017700 26.222900
120  1  0.8581 -0.333665  2.867170 26.210100
121  1  0.8567  1.864710 16.007800 15.371700
122  1  0.8577  4.192000 19.646200 15.297800
123  1  0.8490  1.951990  8.601720 15.243800
124  1  0.8371  4.117450 12.433200 15.413900
125  1  0.8546  6.426690 15.950500 15.417600
126  1  0.8443  8.558290 19.671400 15.528800
127  1  0.8469  1.766370  1.178950 15.439900
128  1  0.8253  4.062740  5.087500 15.517900
129  1  0.8624  6.298050  8.483470 15.290800
130  1  0.8336  8.564850 12.351400 15.410300
131  1  0.8707 10.936800 15.945400 15.420000
132  1  0.8572 13.017300 19.723700 15.459700
133  1  0.8500  6.403150  1.343930 15.170000
134  1  0.8437  8.650040  4.929350 15.394600
135  1  0.8341 10.913600  8.682310 15.255700
136  1  0.8580 13.034100 12.414600 15.523900
137  1  0.8706 15.247900 15.908400 15.389600
138  1  0.8540 -0.369249 19.633100 15.543600
139  1  0.8638 10.796900  1.131830 15.345400
140  1  0.8432 13.097600  5.076530 15.430300
141  1  0.8469 15.134700  8.599650 15.311300
142  1  0.8454 -0.273430 12.437600 15.437300
143  1  0.8800 15.057800  1.223550 15.421100
144  1  0.8722 -0.299470  5.024350 15.375100
145  1  0.1842  1.905630 12.621300 20.010700
146  1  0.1741  4.020710 17.750600 20.764900
147  1  0.1805  1.829870  5.147150 20.062600
148  1  0.1748  3.978900 10.442100 20.884200
149  1  0.1884  6.286970 12.569200 20.051700
150  1  0.1743  8.552680 17.842200 20.898900
151  1  0.2058  2.028110 19.976100 19.838600
152  1  0.1697  4.216910  3.112700 20.468500
153  1  0.1870  6.395020  5.203760 19.924600
154  1  0.1781  8.568160 10.432800 20.719400
155  1  0.2179 10.777400 12.572500 19.929800
156  1  0.1897 12.995800 17.783500 20.656000
157  1  0.1837  6.264960 19.890500 20.094500
158  1  0.1757  8.564970  3.154060 20.723500
159  1  0.2123 10.700800  5.277840 19.815400
160  1  0.1766 12.967400 10.445100 20.932100
161  1  0.1826 15.264200 12.491900 20.202200
162  1  0.1783 17.402900 17.884700 20.590300
163  1  0.1904 10.952300 19.952200 20.100700
164  1  0.1604 12.916600  3.175110 20.654900
165  1  0.2325 15.103000  5.123950 19.656700
166  1  0.1844 -0.196838 10.349100 20.635500
167  1  0.2013 15.131400 20.015300 20.003000
168  1  0.1769 -0.507595  3.127600 20.713900
169  1  0.1723  1.715910 15.618400 20.757600
170  1  0.2201  4.132030 20.779600 21.871300
171  1  0.1717  1.937060  8.115330 21.027400
172  1  0.2058  4.143310 13.541300 21.737100
173  1  0.1797  6.406560 15.602900 21.061400
174  1  0.2255  8.575030 20.757500 21.885000
175  1  0.1763  1.956190  0.923994 20.809300
176  1  0.2032  4.149680  5.990450 21.777100
177  1  0.1782  6.332820  8.189920 20.946200
178  1  0.2247  8.536790 13.425800 21.857900
179  1  0.1815 10.760000 15.619300 21.038200
180  1  0.2347 13.073300 20.806000 21.900800
181  1  0.1711  6.393520  0.913838 20.959000
182  1  0.2045  8.471960  6.148590 21.650000
183  1  0.1701 10.811500  8.163620 20.842700
184  1  0.2111 12.908200 13.473700 21.816100
185  1  0.1761 15.225400 15.469600 20.939100
186  1  0.2078 -0.260115 20.710400 21.642900
187  1  0.1712 10.716000  0.946524 20.861500
188  1  0.1845 13.022300  6.145370 21.577000
189  1  0.1731 15.218500  8.136890 20.647800
190  1  0.2237 -0.311799 13.422400 21.883500
191  1  0.1825 15.107300  0.938276 21.163300
192  1  0.1886 -0.478756  6.053680 21.593400
193  1  0.8828  1.922220 15.946500 40.087500
194  1  0.8619  4.196180 19.544800 39.965100
195  1  0.8286  1.937140  8.564090 39.998400
196  1  0.8504  4.180190 12.429200 40.145100
197  1  0.7890  6.369450 15.883700 40.053300
198  1  0.8419  8.659410 19.657700 40.055900
199  1  0.8450  1.682490  1.224420 40.005700
200  1  0.8555  4.323350  5.050290 40.195600
201  1  0.8810  6.425670  8.445410 40.149600
202  1  0.8594  8.615980 12.160300 40.231800
203  1  0.8374 10.639700 15.911300 40.038200
204  1  0.8502 13.128400 19.659500 40.066800
205  1  0.8124  6.297900  1.276230 39.886700
206  1  0.8560  8.526130  5.035720 40.185300
207  1  0.8433 10.763500  8.381680 40.005100
208  1  0.8163 13.040800 12.225300 40.154600
209  1  0.8134 15.149100 15.850600 39.990900
210  1  0.8495 17.374000 19.669500 40.116900
211  1  0.8643 10.832800  1.298610 40.003100
212  1  0.8930 13.049200  5.029520 40.035800
213  1  0.8472 15.178300  8.510820 39.968900
214  1  0.8800 17.441600 12.186800 40.190600
215  1  0.8458 15.325300  1.376760 40.059500
216  1  0.8666 17.558700  4.988920 40.014000
217  1  0.8649 -0.249175 14.850300 29.374700
218  1  0.8621  1.827090 18.554800 29.230000
219  1  0.8560 17.389600  7.435240 29.532500
220  1  0.8618  1.795710 11.147700 29.272700
221  1  0.8459  4.065640 14.929900 29.387900
222  1  0.8308  6.237990 18.538000 29.252900
223  1  0.8591 17.507300  0.405208 29.334800
224  1  0.8674  1.989110  3.737590 29.350200
225  1  0.8657  3.916450  7.614100 29.303300
226  1  0.8515  6.197620 11.266300 29.368700
227  1  0.8350  8.363830 14.933500 29.429400
228  1  0.8413 10.709800 18.625100 29.202500
229  1  0.8386  4.117450  0.381351 29.480400
230  1  0.8679  6.348530  3.892640 29.314600
231  1  0.8413  8.577880  7.658080 29.347200
232  1  0.8210 10.525900 11.303400 29.380400
233  1  0.8430 12.940000 15.264400 29.574200
234  1  0.8120 15.250800 18.674000 29.207000
235  1  0.8344  8.647480  0.285687 29.230000
236  1  0.8457 10.754000  3.930480 29.166000
237  1  0.8324 12.843000  7.687970 29.566600
238  1  0.8521 15.120900 11.323700 29.439400
239  1  0.8476 13.082300  0.332411 29.256100
240  1  0.8219 15.331400  3.986210 29.376000
241  1  0.2010  1.784920 15.210700 33.895900
242  1  0.1772  4.079570 20.329200 34.508600
243  1  0.1757  1.976030  7.712050 34.096200
244  1  0.1820  4.088650 12.960000 34.610600
245  1  0.1923  6.261570 15.107900 33.914400
246  1  0.2004  8.439270 20.360500 34.636500
247  1  0.1894  1.878510  0.657523 33.916000
248  1  0.1767  4.149400  5.612230 34.869000
249  1  0.2144  6.235550  7.769660 33.788800
250  1  0.1882  8.540350 13.040000 34.739400
251  1  0.2270 10.707800 15.327300 33.765300
252  1  0.1875 13.090400 20.578700 34.633400
253  1  0.1910  6.255520  0.526997 33.914900
254  1  0.1839  8.493420  5.725170 34.590900
255  1  0.1985 10.751000  7.855120 33.866500
256  1  0.1812 12.975100 13.128400 34.627400
257  1  0.1858 15.189500 15.219400 33.935500
258  1  0.1814 -0.201500 20.478000 34.696700
259  1  0.2182 10.819800  0.451342 33.857900
260  1  0.1770 12.961100  5.755520 34.556000
261  1  0.1853 15.271900  7.827350 34.036100
262  1  0.1872 17.405000 13.062600 34.744300
263  1  0.2198 15.292700  0.695945 33.858200
264  1  0.1715 17.438700  5.787960 34.819100
265  1  0.2232 17.414000 16.106800 35.684600
266  1  0.1827  1.849600 18.209100 34.746500
267  1  0.2303 17.497500  8.699550 35.841200
268  1  0.1841  1.906040 10.802300 34.896700
269  1  0.2276  4.040280 15.853900 35.677600
270  1  0.1895  6.317360 18.059200 34.724400
271  1  0.2220 17.478100  1.380820 35.685800
272  1  0.1832  1.783520  3.504710 34.797400
273  1  0.2175  4.193770  8.574260 35.745000
274  1  0.1908  6.325060 10.787400 34.877800
275  1  0.2340  8.460730 16.000500 35.686500
276  1  0.2028 10.722600 18.253500 34.834800
277  1  0.2338  4.090010  1.371930 35.849600
278  1  0.1806  6.364980  3.451280 34.945700
279  1  0.2248  8.541280  8.612790 35.683800
280  1  0.1868 10.779400 10.777300 34.913600
281  1  0.2049 12.944800 16.109300 35.550100
282  1  0.1859 15.169900 18.205500 34.727600
283  1  0.2160  8.495760  1.334970 35.625500
284  1  0.1882 10.758100  3.465760 34.807400
285  1  0.2165 12.987600  8.615340 35.700600
286  1  0.1882 15.093200 10.872500 34.770600
287  1  0.2224 12.998900  1.578780 35.662700
288  1  0.1783 15.180500  3.627250 34.771000
289  2 -0.7569 17.488600 14.596000 41.636000
290  2 -0.7498  1.941550 18.260100 41.644900
291  2 -0.7676 17.581600  7.374060 41.562900
292  2 -0.7970  1.982370 10.995100 -0.058142
293  2 -0.7948  3.938490 14.800000  0.035327
294  2 -0.7837  6.244460 18.507300 41.512100
295  2 -0.8007 17.501400 22.063900 41.721900
296  2 -0.7539  1.992720  3.693080  0.007277
297  2 -0.7795  4.265310  7.437740  0.011529
298  2 -0.7571  6.261040 11.050900  0.092901
299  2 -0.8008  8.604830 14.666800 41.671600
300  2 -0.7575 10.739700 18.319800 -0.035687
301  2 -0.7887  4.118020 22.005400 -0.057243
302  2 -0.8054  6.307060  3.756630 41.792600
303  2 -0.8139  8.583150  7.421800 41.605000
304  2 -0.7627 10.742000 10.981000  0.117379
305  2 -0.7720 12.971300 14.810000 41.600700
306  2 -0.8095 15.132700 18.478400 41.657500
307  2 -0.7551  8.641000 22.195200 41.555400
308  2 -0.7589 10.762300  3.754640  0.030491
309  2 -0.7541 13.052800  7.351230 -0.131994
310  2 -0.7926 15.350600 10.973400 -0.014128
311  2 -0.7480 13.132300 22.138900 41.650400
312  2 -0.7531 15.302200  3.913870 -0.083969
313  2 -0.6484  1.912680 16.046500  2.947430
314  2 -0.6870  4.045620 19.803300  3.011760
315  2 -0.6823  1.899700  8.627150  2.909120
316  2 -0.6759  4.175720 12.287300  3.034320
317  2 -0.7007  6.400260 16.008500  2.940530
318  2 -0.6470  8.503790 19.726100  2.962670
319  2 -0.6704  1.875510  1.303030  2.924810
320  2 -0.6412  4.254370  4.912410  3.031950
321  2 -0.6761  6.399970  8.538910  3.075960
322  2 -0.6495  8.632590 12.420100  3.006480
323  2 -0.6555 10.857100 15.916600  3.005000
324  2 -0.6827 13.002900 19.789500  2.956500
325  2 -0.6441  6.309390  1.236340  2.892340
326  2 -0.6703  8.596020  4.897040  3.005000
327  2 -0.6910 10.976200  8.561280  2.912700
328  2 -0.6835 13.171900 12.284200  3.076110
329  2 -0.6788 15.237200 15.880100  2.821210
330  2 -0.6678 -0.422076 19.629100  2.982150
331  2 -0.6507 10.664600  1.206520  2.970060
332  2 -0.6577 12.931200  5.176430  3.001770
333  2 -0.6809 15.481200  8.560410  2.843850
334  2 -0.6712 -0.095297 12.313900  3.001490
335  2 -0.6588 15.309900  1.279050  2.891710
336  2 -0.6703 -0.194863  4.938900  3.026460
337  2 -0.6458  1.723450 15.763400 10.708800
338  2 -0.6377  3.978860 19.740700 10.741100
339  2 -0.6544  1.827090  8.324960 10.780100
340  2 -0.6427  4.066940 12.313200 10.796100
341  2 -0.6575  6.312430 15.906900 10.639300
342  2 -0.6461  8.732950 19.483700 10.907400
343  2 -0.6501  1.813060  1.214050 10.951400
344  2 -0.6364  4.053280  5.071140 10.916200
345  2 -0.6723  6.274880  8.670460 10.776500
346  2 -0.6616  8.737370 12.625400 10.830800
347  2 -0.6187 10.790400 16.046600 10.639800
348  2 -0.6388 13.100700 19.617400 11.039500
349  2 -0.7086  6.289990  1.270360 10.672800
350  2 -0.6334  8.546710  4.892670 10.887800
351  2 -0.6982 10.749400  8.472290 10.679300
352  2 -0.6217 12.761700 12.389000 10.934000
353  2 -0.6490 15.209900 15.916000 10.770700
354  2 -0.6244 17.469300 19.611200 10.823000
355  2 -0.6702 10.868200  1.094670 10.675100
356  2 -0.6356 13.071200  4.974720 10.972100
357  2 -0.6677 15.138600  8.588470 10.701000
358  2 -0.6558 17.422400 12.333900 10.851400
359  2 -0.6316 15.273000  1.040760 10.726900
360  2 -0.6472 -0.343641  5.013410 10.816600
361  2 -0.7492  1.933890 13.510700 13.867200
362  2 -0.7753  4.117860 17.111200 13.855400
363  2 -0.7971  1.894460  6.164700 13.882000
364  2 -0.7605  4.219320  9.905530 13.707800
365  2 -0.8160  6.358130 13.588300 13.863000
366  2 -0.7629  8.685050 17.126800 13.947100
367  2 -0.7668  1.782260 20.771300 13.893900
368  2 -0.7892  4.075800  2.602220 13.832500
369  2 -0.7645  6.334050  6.237390 13.747600
370  2 -0.8084  8.532920  9.844910 13.740000
371  2 -0.7706 10.739100 13.535400 13.942000
372  2 -0.8101 13.083900 17.231900 13.940500
373  2 -0.7835  6.370560 20.820800 13.653800
374  2 -0.7699  8.664050  2.462770 13.764600
375  2 -0.7585 10.759900  6.159650 13.907600
376  2 -0.7813 13.022800 10.018700 13.789400
377  2 -0.7787 15.204600 13.666800 13.745500
378  2 -0.7989 -0.371681 17.182000 13.862300
379  2 -0.8121 10.900700 20.738100 13.880600
380  2 -0.7923 13.020200  2.499100 13.929000
381  2 -0.7828 15.167800  6.232720 13.847200
382  2 -0.7511 -0.397778  9.875480 13.779600
383  2 -0.7849 15.236000 20.937600 13.959400
384  2 -0.7567 -0.272953  2.510270 13.908600
385  2 -0.6660 -0.381543 14.783700 16.932000
386  2 -0.6411  2.037670 18.524300 16.758200
387  2 -0.6367 17.479200  7.479650 16.850200
388  2 -0.6281  1.915810 11.052800 16.680000
389  2 -0.6328  4.018550 15.024300 16.917600
390  2 -0.6303  6.279790 18.352400 16.705200
391  2 -0.6630 17.333200  0.126058 16.904700
392  2 -0.6448  1.631230  3.699100 16.741800
393  2 -0.6753  4.150160  7.578050 16.757000
394  2 -0.6174  6.302480 11.092900 16.828900
395  2 -0.6396  8.751580 14.793400 16.966200
396  2 -0.6258 10.759100 18.325100 16.924000
397  2 -0.6309  4.364790  0.132874 16.810900
398  2 -0.6515  6.361750  3.705050 16.677000
399  2 -0.6235  8.586930  7.433360 16.933300
400  2 -0.6277 10.876900 11.180200 16.878300
401  2 -0.6509 13.101500 14.893200 16.974800
402  2 -0.6513 15.259900 18.417500 16.799900
403  2 -0.6411  8.588060  0.146141 16.805000
404  2 -0.6257 10.837000  3.590140 16.834500
405  2 -0.6761 12.968600  7.574570 16.891100
406  2 -0.6194 15.205600 11.135200 16.800400
407  2 -0.6736 12.989300  0.058037 16.998700
408  2 -0.6500 15.253400  3.823390 16.711100
409  2 -0.6537 17.477900 14.945800 24.804400
410  2 -0.6693  1.832070 18.607300 24.724600
411  2 -0.6320 17.447800  7.608500 24.955700
412  2 -0.6458  1.731580 11.186300 24.773400
413  2 -0.6737  4.209860 14.915200 24.770400
414  2 -0.6710  6.352940 18.490600 24.727500
415  2 -0.6234 -0.279924  0.316990 24.791300
416  2 -0.6722  1.805910  3.787360 24.708800
417  2 -0.6479  4.145780  7.603130 24.908900
418  2 -0.6672  6.275960 11.190400 24.806900
419  2 -0.6637  8.425880 14.821200 24.882300
420  2 -0.6614 10.878600 18.471400 24.737500
421  2 -0.6494  3.959500  0.369001 24.778100
422  2 -0.6781  6.281380  3.929990 24.739400
423  2 -0.6425  8.415190  7.691230 24.778700
424  2 -0.6477 10.807200 11.361200 24.809500
425  2 -0.6281 12.720700 14.955500 24.997700
426  2 -0.6730 15.219600 18.674800 24.610900
427  2 -0.6967  8.522950  0.221978 24.740600
428  2 -0.6610 10.613000  4.022420 24.568200
429  2 -0.6261 13.146500  7.584330 24.837400
430  2 -0.6678 15.211500 11.253600 24.769700
431  2 -0.6524 13.060400  0.168570 24.860500
432  2 -0.6803 15.225400  4.007920 24.732400
433  2 -0.7666  1.886930 16.112900 27.595200
434  2 -0.7714  3.888000 19.839700 27.858600
435  2 -0.7618  1.783980  8.623090 27.853500
436  2 -0.7920  3.950860 12.361900 27.890000
437  2 -0.7821  6.169220 16.030100 27.764100
438  2 -0.7797  8.436370 19.823900 27.605500
439  2 -0.7914  1.996060  1.539840 27.763800
440  2 -0.7745  4.182620  5.148640 27.821900
441  2 -0.7616  6.301370  8.700810 27.820500
442  2 -0.8207  8.399320 12.498700 27.783500
443  2 -0.7774 10.608700 16.135200 27.912300
444  2 -0.7939 13.051800 19.858900 27.719100
445  2 -0.7851  6.207070  1.446410 27.788600
446  2 -0.7532  8.516700  5.133430 27.677800
447  2 -0.7742 10.896800  8.684380 27.731800
448  2 -0.7055 13.002700 12.629200 27.916800
449  2 -0.7817 15.205800 16.128500 27.819300
450  2 -0.8289 -0.255594 19.945400 27.831600
451  2 -0.7780 10.770000  1.503330 27.686900
452  2 -0.7534 12.998300  5.255300 27.708200
453  2 -0.7638 15.220400  8.781560 27.921300
454  2 -0.7711 -0.349728 12.473400 27.757100
455  2 -0.7862 15.285400  1.525500 27.680600
456  2 -0.8087 -0.263061  5.212580 27.794600
457  2 -0.6504  1.747050 13.654300 30.749600
458  2 -0.6623  4.067900 17.321900 30.741700
459  2 -0.6368  1.926420  6.187170 30.715100
460  2 -0.6486  4.029460 10.075800 30.832100
461  2 -0.6794  6.326750 13.577000 30.808200
462  2 -0.6417  8.560320 17.511000 30.933200
463  2 -0.6358  1.790840 21.027600 30.773800
464  2 -0.6672  4.153150  2.872470 30.896700
465  2 -0.6088  6.363930  6.290290 30.697200
466  2 -0.6798  8.527450 10.092700 30.878700
467  2 -0.6380 10.760600 13.888600 30.865400
468  2 -0.6617 12.980500 17.692200 30.893800
469  2 -0.6310  6.415600 20.981100 30.764400
470  2 -0.6306  8.592540  2.692720 30.879900
471  2 -0.6597 10.607000  6.343670 30.734600
472  2 -0.6537 12.887500 10.350500 30.952400
473  2 -0.6403 15.218700 13.741400 30.648100
474  2 -0.6461 17.466800 17.311500 30.850100
475  2 -0.6226 10.808100 20.998800 30.683900
476  2 -0.6275 12.959100  2.783200 30.815200
477  2 -0.6715 15.050900  6.361120 30.899000
478  2 -0.6469 17.434700  9.984770 30.936700
479  2 -0.6314 15.256400 21.346900 30.783200
480  2 -0.6744 17.529600  2.720970 30.894000
481  2 -0.6367  1.945940 13.549400 38.588500
482  2 -0.6655  4.051590 17.128700 38.519500
483  2 -0.6761  1.996220  5.970720 38.612400
484  2 -0.6282  4.267910  9.914600 38.641400
485  2 -0.6599  6.481180 13.363500 38.661400
486  2 -0.6672  8.524140 17.361400 38.461800
487  2 -0.6654  1.792720 20.731100 38.666700
488  2 -0.6640  4.071770  2.552180 38.698300
489  2 -0.6891  6.458110  6.157810 38.583000
490  2 -0.6436  8.418270  9.763980 38.706600
491  2 -0.6478 10.705500 13.390700 38.555000
492  2 -0.6529 12.916500 17.243600 38.554600
493  2 -0.6687  6.409220 20.826300 38.371200
494  2 -0.6579  8.671380  2.651210 38.673900
495  2 -0.6632 10.774200  6.008280 38.563300
496  2 -0.6771 12.956400  9.733340 38.692000
497  2 -0.6618 15.284300 13.357700 38.619500
498  2 -0.6554 17.467700 17.188700 38.693600
499  2 -0.6542 10.895100 20.873400 38.493300
500  2 -0.6588 12.977400  2.575240 38.750700
501  2 -0.6825 15.181400  6.108460 38.569700
502  2 -0.6823 17.533200 10.000300 38.682900
503  2 -0.6781 15.300600 20.905500 38.567900
504  2 -0.7052 -0.325277  2.598510 38.658000

