Generated by pymatgen.io.lammps.data.LammpsData

320  atoms

  2  atom types

0.000000 16.864293  xlo xhi
0.000000 23.165087  ylo yhi
0.000000 24.472453  zlo zhi

Masses

1  208.9804
2   78.9600

Atoms

1    1  0.8361  0.896062 11.343700 10.615200
2    1  0.8982  1.062300 11.697500 23.073800
3    1  0.8146  1.510550 22.666400 10.946000
4    1  0.8839  1.154760  0.011173 22.733100
5    1  0.8760  5.171970 11.356700 10.623200
6    1  0.8011  5.012470 11.538800 23.047900
7    1  0.8038  5.515060 -0.112796 10.494400
8    1  0.8735  5.275080 22.963100 23.437500
9    1  0.8943  9.495940 11.337600  9.959380
10   1  0.8314  8.811070 11.735900 22.466800
11   1  0.8213  9.405350 22.942500 11.080800
12   1  0.8317  9.667030 22.903900 23.291000
13   1  0.8653 13.577600 11.291000 10.578900
14   1  0.7701 12.776400 11.395300 22.958800
15   1  0.8578 14.154300 22.707200 11.055700
16   1  0.8191 13.464400 22.993000 22.874400
17   1  0.7831  3.374830  0.257583  2.499340
18   1  0.8063  3.094760  0.151268 14.112300
19   1  0.7867  3.004190 11.980900  2.139540
20   1  0.7847  3.349490 12.031500 14.278800
21   1  0.8351  7.517350  0.333053  3.040410
22   1  0.8398  7.457410  0.297468 14.709500
23   1  0.8665  7.189340 11.533400  2.495890
24   1  0.7877  7.687870 12.312600 14.334100
25   1  0.8459 11.718300  0.321652  2.671630
26   1  0.8323 11.473900  0.296190 15.266400
27   1  0.8180 11.265000 12.703400  3.017730
28   1  0.7861 11.795300 12.114400 14.969700
29   1  0.8118 15.894000  0.717124  2.650130
30   1  0.8185 15.810400  1.182430 14.333100
31   1  0.8302 15.678100 12.196900  2.749580
32   1  0.8256 15.933100 11.748800 14.529800
33   1  0.9051  3.310690  5.817320  8.627040
34   1  0.8015  3.080460  5.140400 20.742000
35   1  0.8017  2.951350 16.578400  7.838520
36   1  0.8431  3.004460 17.398000 20.619600
37   1  0.8617  7.403090  5.837680  8.851330
38   1  0.7925  7.377830  5.465110 20.485000
39   1  0.8352  7.616040 17.454300  7.495130
40   1  0.7851  6.854830 17.601300 20.731800
41   1  0.8371 11.845800  5.309720  8.599660
42   1  0.7659 11.918100  5.765530 20.510100
43   1  0.8091 11.321400 16.586200  8.673750
44   1  0.8338 11.418100 17.056900 20.727600
45   1  0.8353 16.548700  5.665930  8.575880
46   1  0.7985 16.008300  5.448290 21.016800
47   1  0.8343 15.290700 17.137000  8.473060
48   1  0.7732 15.539600 17.015700 20.050100
49   1  0.8375  1.022330  6.577450  4.999650
50   1  0.7552  0.862656  7.057580 16.419400
51   1  0.8614  0.875332 17.783100  4.865840
52   1  0.8159  1.033950 17.619500 16.731100
53   1  0.8406  4.966340  6.707310  4.809320
54   1  0.8515  4.732000  6.064930 16.898000
55   1  0.8399  4.919580 18.043100  4.943030
56   1  0.8176  5.536630 17.968700 16.989100
57   1  0.8473  9.533730  6.161560  5.462260
58   1  0.7882  9.800330  6.273870 17.306300
59   1  0.7443  9.538030 17.786500  4.417360
60   1  0.8514  9.647170 17.579900 16.631000
61   1  0.8721 13.839000  6.632170  4.665120
62   1  0.8327 13.523600  5.546950 16.494100
63   1  0.7363 13.114100 17.930900  4.953880
64   1  0.8218 13.931900 17.776600 17.096300
65   1  0.7865  0.910945  1.970980  6.493570
66   1  0.8612  1.034990  1.924490 18.488300
67   1  0.8186  0.621380 13.329600  6.225370
68   1  0.8259  0.733470 13.328300 18.585400
69   1  0.8126  4.230260  1.775490  5.670920
70   1  0.8373  5.288000  1.992130 18.620000
71   1  0.8432  5.503050 13.511700  5.766120
72   1  0.8587  5.201370 13.876200 18.594300
73   1  0.8007  9.445260  2.512210  6.398700
74   1  0.8435  9.510580  2.295780 18.833300
75   1  0.8555  9.462990 13.296400  6.286070
76   1  0.7991  9.279920 13.801400 18.596700
77   1  0.8202 13.912900  2.499630  6.585970
78   1  0.8627 13.518300  1.574410 18.570600
79   1  0.8059 13.786600 13.437300  6.609600
80   1  0.7189 13.751800 13.583900 19.039300
81   1  0.8317  3.190510  9.761480  6.321940
82   1  0.8196  3.160510 10.041300 18.375100
83   1  0.8244  2.824740 21.107600  6.599230
84   1  0.8829  3.013510 21.583500 18.702200
85   1  0.8080  7.425160  9.240630  6.694890
86   1  0.8431  7.294680  9.430220 18.882600
87   1  0.8143  7.487530 21.754300  6.883390
88   1  0.8047  7.585100 21.418000 19.172400
89   1  0.8190 11.616900  9.430810  6.933530
90   1  0.7134 11.503200 10.116500 19.506400
91   1  0.8449 11.810700 21.814400  6.812660
92   1  0.8161 11.873700 21.070600 19.128800
93   1  0.8135 15.533400  9.420100  6.782070
94   1  0.8213 15.361300  9.703050 19.760400
95   1  0.8247 15.503500 21.189500  6.407920
96   1  0.8008 15.518900 20.784900 19.528200
97   1  0.7847  3.194300  7.825940 12.955200
98   1  0.8395  2.719200  7.794250  0.774352
99   1  0.8297  2.863190 19.228700 12.490500
100  1  0.8510  3.149020 19.573400  0.329933
101  1  0.8107  7.363980  7.990550 13.079800
102  1  0.8219  7.296080  7.785030  1.085760
103  1  0.8029  6.903380 19.048500 12.022800
104  1  0.8256  6.999460 19.027800 -0.120893
105  1  0.9123 11.319500  7.560500 12.543100
106  1  0.8132 11.427500  8.147380  0.636941
107  1  0.8414 11.529900 19.645000 12.933700
108  1  0.8155 12.179400 19.374000  0.541929
109  1  0.8353 16.114300  7.902700 12.886800
110  1  0.8773 15.862000  7.810920  0.761155
111  1  0.8765 15.981900 19.281100 12.551400
112  1  0.8428 16.264900 19.403600  1.016350
113  1  0.8350  1.144570  4.257860 24.103600
114  1  0.8026  1.336980  3.875570 12.086700
115  1  0.7997  0.976259 15.791700  0.200069
116  1  0.8668  1.384090 15.266400 12.286900
117  1  0.8020  5.687230  3.633710  0.453723
118  1  0.8298  5.126580  3.986970 12.317000
119  1  0.8185  4.867100 15.072800 24.353000
120  1  0.7953  5.329690 15.370100 11.939000
121  1  0.8018  9.531570  3.813670  0.301629
122  1  0.8280  9.491800  3.737330 12.447100
123  1  0.8100  9.504430 15.765300 -0.085362
124  1  0.7812  9.501020 15.516100 12.355700
125  1  0.8313 13.483700  3.987740 24.556400
126  1  0.7647 13.391100  3.671090 12.506700
127  1  0.8583 13.789900 15.281600  0.828303
128  1  0.8532 14.065700 15.174400 12.350300
129  2 -0.5075  1.768470  3.573730  9.187430
130  2 -0.6332  0.892837  3.447060 21.332300
131  2 -0.4918  0.532565 14.923400  8.909360
132  2 -0.4618  1.164170 15.308900 21.231700
133  2 -0.3917  5.009830  3.755850  9.029220
134  2 -0.5285  5.608610  3.169350 21.156500
135  2 -0.5015  5.531030 15.358100  8.212080
136  2 -0.5376  5.179290 15.259700 21.147000
137  2 -0.5642  9.059650  3.780150  9.189150
138  2 -0.5220  9.972160  3.817660 21.278300
139  2 -0.5390  9.119050 14.984100  8.580230
140  2 -0.5147  8.964220 15.548900 21.296500
141  2 -0.5581 14.191000  3.749980  8.888720
142  2 -0.5015 13.760600  3.390380 21.514100
143  2 -0.5457 13.379100 14.807800  9.176360
144  2 -0.4939 14.110700 15.332900 21.773600
145  2 -0.6199  2.931980  8.440120  3.856050
146  2 -0.6746  3.478120  8.177470 15.963100
147  2 -0.5929  2.885390 19.729500  4.265990
148  2 -0.4383  2.843010 19.868600 15.868300
149  2 -0.6100  7.500890  7.816310  4.421990
150  2 -0.5183  7.745030  8.009480 16.470900
151  2 -0.3790  7.481670 19.698800  3.219480
152  2 -0.4758  7.635870 19.631600 16.123900
153  2 -0.5339 11.388200  8.034050  4.402900
154  2 -0.4263 11.867400  7.913120 15.889700
155  2 -0.5326 11.221500 20.157000  4.521990
156  2 -0.4935 11.637600 19.402500 16.434400
157  2 -0.5355 15.695200  8.467580  4.000480
158  2 -0.4580 15.383900  8.263410 15.704300
159  2 -0.5837 15.537600 19.508100  4.069680
160  2 -0.4322 15.732300 19.607600 15.996400
161  2 -0.4746  3.110030  9.636340  9.786100
162  2 -0.4448  3.129830  9.735210 22.338200
163  2 -0.5153  3.064010 20.791200  9.903090
164  2 -0.4682  3.176390 21.516800 22.107400
165  2 -0.5026  7.333950  9.613330 10.282700
166  2 -0.4020  7.262360  9.107290 22.715700
167  2 -0.5772  7.497100 21.124500  9.882650
168  2 -0.5376  7.237290 21.128300 22.259400
169  2 -0.4921 11.609200  9.401410 10.285800
170  2 -0.6141 11.288100  9.402160 22.256300
171  2 -0.4554 11.806800 21.195900 10.343800
172  2 -0.5160 11.974300 20.592600 22.353900
173  2 -0.4721 15.411800  9.223630 10.190600
174  2 -0.4826 15.590300  9.854680 22.783500
175  2 -0.4790 15.941600 20.563800 10.218000
176  2 -0.4502 15.857400 21.254100 22.577800
177  2 -0.4622  1.267210  2.617120  3.506070
178  2 -0.5112  1.213230  2.289160 14.973500
179  2 -0.5048  1.171830 13.944200  2.937260
180  2 -0.5065  0.823119 13.811700 15.363600
181  2 -0.5763  5.311980  2.355860  3.063840
182  2 -0.4576  4.881110  1.946350 14.898100
183  2 -0.4795  5.336280 13.785000  2.905650
184  2 -0.5397  5.233320 13.703900 14.986900
185  2 -0.5261  9.733270  2.073980  2.811320
186  2 -0.4907  9.452660  2.237050 15.277100
187  2 -0.5196  8.956780 13.767200  3.368160
188  2 -0.5609  9.539500 14.405700 15.357800
189  2 -0.4747 13.724200  2.394020  2.860800
190  2 -0.5685 13.556500  2.314840 15.515000
191  2 -0.5641 13.683000 14.288000  3.372850
192  2 -0.5082 13.939300 13.677200 14.996500
193  2 -0.5849  0.961168 10.929200  5.218180
194  2 -0.5976  0.680711 10.431600 18.058200
195  2 -0.6148  0.715445 22.480900  5.051950
196  2 -0.4205  0.648403 22.565100 17.146900
197  2 -0.6013  5.470270 10.834800  4.855940
198  2 -0.5588  5.516000 11.053800 17.496000
199  2 -0.6077  5.040310 22.355200  4.701050
200  2 -0.5151  5.084860 22.369300 17.103900
201  2 -0.5357  9.236040 10.732900  4.834890
202  2 -0.5833  9.293000 11.164200 17.678900
203  2 -0.5791  9.518540 22.857700  5.252030
204  2 -0.5312  9.526430 22.500800 17.419200
205  2 -0.5628 13.393800 10.632100  5.149120
206  2 -0.5783 13.785200 10.892000 17.799700
207  2 -0.6408 13.661300 22.852700  5.075540
208  2 -0.5238 13.758300 22.250900 17.266500
209  2 -0.5395  2.909770  0.747191  7.741360
210  2 -0.5814  3.206480  0.981569 20.001600
211  2 -0.4664  3.064250 12.368900  7.735250
212  2 -0.5100  2.938700 12.475800 20.074000
213  2 -0.5034  6.831310  1.066420  7.652030
214  2 -0.5475  7.799350  0.756645 20.214800
215  2 -0.5317  7.265650 12.049500  7.763950
216  2 -0.5493  7.256050 12.534400 20.358400
217  2 -0.5144 11.800100  1.362610  8.321700
218  2 -0.5895 11.546200  0.532291 20.268100
219  2 -0.6307 11.180900 12.122500  7.904680
220  2 -0.6453 11.191000 12.911000 20.910200
221  2 -0.5031 16.121900  0.336328  8.093340
222  2 -0.5279 15.851700  0.565008 20.012700
223  2 -0.6162 15.678700 11.849800  8.043090
224  2 -0.5309 15.961500 12.587100 20.709800
225  2 -0.4452  2.766840  5.114960  1.996460
226  2 -0.5456  3.137010  5.015570 14.189700
227  2 -0.5039  3.252300 17.209000  1.852480
228  2 -0.5513  3.344390 16.621300 13.602100
229  2 -0.5400  7.378240  5.316210  2.136270
230  2 -0.4312  7.901500  5.092060 14.402400
231  2 -0.4613  6.944070 16.593900  1.277980
232  2 -0.5806  7.369120 16.798700 13.593500
233  2 -0.4801 11.717700  5.270100  1.849410
234  2 -0.5654 11.551700  4.972070 14.016400
235  2 -0.6105 11.711000 16.811800  1.884770
236  2 -0.4715 12.043800 16.844200 14.041700
237  2 -0.4407 15.994200  5.084370  1.884840
238  2 -0.5377 15.726200  5.168280 14.026700
239  2 -0.4951 16.079400 16.688000  2.430620
240  2 -0.4599 16.075900 16.413700 13.959300
241  2 -0.6142  1.012450  6.543370 11.162000
242  2 -0.6042  0.987421  6.798060 23.431600
243  2 -0.5624  1.123480 17.706600 11.151900
244  2 -0.4906  1.067780 18.398600 23.078300
245  2 -0.6040  5.023120  6.534850 11.167900
246  2 -0.4898  4.544770  5.979680 23.514100
247  2 -0.5086  4.864910 18.043500 10.526600
248  2 -0.6203  4.701160 18.262400 22.831600
249  2 -0.6018  9.269870  6.636920 11.448500
250  2 -0.4592  9.679240  6.485270 23.319400
251  2 -0.5584  9.813770 17.870500 11.096700
252  2 -0.5404  9.484100 18.493100 23.210800
253  2 -0.4639 13.635800  6.443020 11.242400
254  2 -0.6006 14.092300  6.846930 23.709600
255  2 -0.5165 13.930700 17.797200 10.868600
256  2 -0.5175 14.225000 18.201000 24.059400
257  2 -0.5656  0.844197 10.057300  1.327790
258  2 -0.7198  1.259130  9.999410 13.287300
259  2 -0.5811  1.504480 21.662000  0.678901
260  2 -0.6162  0.890743 21.072300 13.399800
261  2 -0.6528  5.157120 10.098300  1.029580
262  2 -0.6200  5.203160 10.384200 13.343100
263  2 -0.5919  5.283310 21.518400  1.130970
264  2 -0.6063  5.494880 21.717200 13.228300
265  2 -0.5211  8.968950 10.057900  0.801421
266  2 -0.4833  9.719580 10.037300 12.791300
267  2 -0.5359  9.956180 21.700200  1.248260
268  2 -0.5811  9.644270 21.674400 13.552200
269  2 -0.4616 13.897100 10.051500  1.697560
270  2 -0.4589 13.591600 10.088400 13.541000
271  2 -0.5427 14.450300 21.874100  0.808122
272  2 -0.5343 13.919400 21.651300 13.474100
273  2 -0.6413  3.258570  1.549000 11.552300
274  2 -0.5961  3.481790  1.681330 -0.271076
275  2 -0.6481  3.026260 13.404500 11.339500
276  2 -0.7411  3.047750 13.381800 23.897100
277  2 -0.6086  7.320600  1.867480 12.053200
278  2 -0.6081  7.613770  1.363880  0.130529
279  2 -0.6025  7.473280 12.988100 11.610500
280  2 -0.5649  7.721980 13.297000 24.278800
281  2 -0.6176 11.434500  1.293970 12.208500
282  2 -0.6061 11.648400  1.682480 24.156000
283  2 -0.5470 11.631000 12.990600 11.573000
284  2 -0.5943 11.591100 13.291900  0.318709
285  2 -0.6670 15.962400  1.365160 11.575800
286  2 -0.5165 16.171000  1.970650 24.281700
287  2 -0.6346 15.822200 13.056400 11.820200
288  2 -0.5279 15.893700 13.312100 24.482500
289  2 -0.5817  3.137600  4.921300  5.969140
290  2 -0.5848  3.060370  4.319670 17.848000
291  2 -0.6114  2.729920 15.786300  5.372540
292  2 -0.5817  3.468260 16.130200 17.886900
293  2 -0.5169  7.460440  4.586540  6.120250
294  2 -0.5922  6.801000  4.215700 17.839700
295  2 -0.6055  7.297550 16.371900  5.236950
296  2 -0.6073  7.147660 16.242100 18.227600
297  2 -0.6266 11.896400  4.257550  5.892520
298  2 -0.6480 11.432600  3.775460 18.019100
299  2 -0.6419 11.595200 15.235600  6.083610
300  2 -0.6069 11.812300 15.755700 17.951300
301  2 -0.6211 15.743400  4.974650  5.658470
302  2 -0.5048 15.427100  3.689610 18.109000
303  2 -0.5879 15.403000 16.066500  5.904790
304  2 -0.6812 16.031100 15.762200 17.698800
305  2 -0.7059  1.349910  7.363140  7.536950
306  2 -0.4710  1.082420  7.430300 19.883300
307  2 -0.5813  0.829799 18.946400  7.320140
308  2 -0.6094  0.951801 19.445100 19.338100
309  2 -0.6538  5.550780  7.425320  7.510010
310  2 -0.5419  5.203380  7.180870 19.866500
311  2 -0.6311  5.732620 18.986300  7.319280
312  2 -0.5993  4.635270 19.591800 19.605600
313  2 -0.6684  9.983790  7.221670  7.952820
314  2 -0.6455  9.398340  7.590650 19.685600
315  2 -0.5160  9.743150 19.687400  7.411580
316  2 -0.5641  9.703300 18.853000 19.447100
317  2 -0.5935 13.690900  7.267770  7.567680
318  2 -0.5967 14.164600  7.090310 19.184900
319  2 -0.5095 13.201700 19.346800  7.876920
320  2 -0.7461 13.463100 18.754800 19.718300

