Generated by pymatgen.io.lammps.data.LammpsData

216  atoms

  2  atom types

0.000000 18.096178  xlo xhi
0.000000 18.140645  ylo yhi
0.000000 18.233787  zlo zhi

Masses

1  208.9804
2   78.9600

Atoms

1    1  0.7683 17.971100 17.931600  1.159140
2    1  0.7300  0.716060 17.853400  6.753510
3    1  0.8155 18.151800 17.595200 12.896900
4    1  0.7829 18.070200  6.096130 -0.028119
5    1  0.8028 -0.453460  5.514140  6.840450
6    1  0.7055  0.205675  6.013180 12.924400
7    1  0.8157 17.885100 11.497500  0.156997
8    1  0.8120  0.261374 11.077900  6.442600
9    1  0.7600  0.215403 11.881900 12.553000
10   1  0.8639  6.206400 17.713700  0.696468
11   1  0.7950  6.026050 17.756700  6.246730
12   1  0.7258  6.005010 17.610200 12.599100
13   1  0.7360  5.728690  4.929470  0.667418
14   1  0.8003  6.389970  5.702840  6.534180
15   1  0.7716  6.267220  5.897300 12.612700
16   1  0.6664  6.159140 12.269000  0.386918
17   1  0.7676  6.158670 11.691000  6.891420
18   1  0.8364  5.852460 11.573600 12.827000
19   1  0.8182 12.282800 17.750700  0.710886
20   1  0.7614 11.433900 17.573200  6.424140
21   1  0.8447 12.354700 17.641700 12.669500
22   1  0.7837 12.906100  4.619380  0.497321
23   1  0.6653 11.783200  6.060530  6.485370
24   1  0.7349 12.050900  5.506440 12.790100
25   1  0.8574 11.585200 11.656300  0.363366
26   1  0.7982 11.774700 11.778200  5.756020
27   1  0.7824 12.123300 11.263000 12.306800
28   1  0.6822 17.678200  2.473840  3.788890
29   1  0.9096 -0.044313  2.662870  9.543180
30   1  0.7878  0.444382  2.287170 15.556700
31   1  0.8147  0.257707  8.694000  3.937650
32   1  0.7911  0.224834  9.029460  9.936060
33   1  0.6912  0.359082  8.362420 15.594500
34   1  0.8276 17.619400 14.575200  3.520260
35   1  0.6997 18.215200 15.067400  9.864610
36   1  0.7967  0.519141 14.676500 15.995800
37   1  0.7185  5.996680  2.289730  3.563730
38   1  0.8125  6.395230  2.348990  9.788080
39   1  0.8128  6.010760  2.158150 15.858900
40   1  0.7163  5.448810  9.253610  3.098470
41   1  0.6994  6.234490  8.868310  9.890020
42   1  0.8269  6.242170  7.919030 15.737300
43   1  0.7648  6.603490 15.182600  4.152720
44   1  0.7688  6.405190 14.722800 10.188100
45   1  0.6159  6.852970 14.612700 16.897600
46   1  0.8368 11.910700  2.718730  3.561900
47   1  0.7549 12.085900  2.737700  9.942320
48   1  0.8345 12.315100  2.451110 15.815800
49   1  0.7769 12.367800  8.704640  3.461680
50   1  0.6883 12.426100  8.279630  9.703860
51   1  0.7863 12.407600  8.758800 16.213800
52   1  0.7949 11.965600 14.170800  3.389860
53   1  0.8252 12.311100 14.574600  9.886290
54   1  0.8143 12.223800 14.393100 15.897900
55   1  0.8016  3.214900 17.834000  3.746190
56   1  0.7305  2.987870 17.655800 10.374000
57   1  0.7689  2.935230 17.593400 16.487600
58   1  0.6608  3.320870  5.995860  3.278760
59   1  0.6999  3.856320  6.217380  9.944390
60   1  0.8694  3.060170  5.493330 16.403000
61   1  0.7900  3.567300 12.100500  4.492330
62   1  0.7749  3.164890 12.311000  9.839280
63   1  0.8396  3.042340 11.545200 15.768500
64   1  0.7560  8.890440 17.818800  3.830780
65   1  0.8611  9.041220 17.661800  9.413560
66   1  0.7072  9.032770 17.534400 15.365500
67   1  0.7571  8.985730  5.570240  2.757520
68   1  0.7068  9.242440  5.746060  9.049940
69   1  0.7846  9.318570  5.302930 15.607100
70   1  0.8244  9.014930 11.992200  3.010400
71   1  0.7660  8.697190 12.165700  9.496470
72   1  0.8873  8.826130 11.296600 15.431900
73   1  0.7673 14.668300 17.583900  3.519540
74   1  0.8169 15.111900 17.238400  9.678110
75   1  0.8030 14.567400 17.450300 15.929400
76   1  0.7959 15.100600  5.631370  3.888740
77   1  0.7910 15.025300  5.527600 10.064700
78   1  0.8347 15.536400  4.792800 16.042400
79   1  0.7264 14.819300 11.517200  3.286540
80   1  0.7797 15.050100 11.700400  9.194250
81   1  0.8148 15.257000 11.937000 15.561500
82   1  0.7451  2.971430  2.296530  1.046250
83   1  0.8601  2.919710  2.562620  6.926720
84   1  0.7881  3.775520  2.705150 13.033300
85   1  0.8078  3.224750  8.744620  0.570256
86   1  0.6907  3.206470  8.211470  6.266160
87   1  0.7299  3.012940  9.190780 12.613700
88   1  0.8884  3.321770 14.686700  0.612318
89   1  0.7279  3.424050 14.870900  6.037190
90   1  0.7343  3.286750 15.142200 13.399200
91   1  0.7614  9.447580  2.396070 18.239400
92   1  0.7386  9.277450  2.357980  7.064770
93   1  0.7808  9.309780  2.299410 12.489500
94   1  0.8213  9.142130  8.748110  0.595205
95   1  0.7846  9.366220  8.613310  6.279530
96   1  0.7674  8.918660  8.816900 12.211400
97   1  0.6205  9.670490 14.852300  0.542771
98   1  0.7994  9.122420 14.428100  6.555870
99   1  0.8307  9.007020 14.697900 12.816700
100  1  0.7515 15.488700  2.173030  0.667507
101  1  0.7687 14.954500  2.610240  6.659030
102  1  0.8589 15.141100  2.538400 12.929100
103  1  0.7798 15.527200  8.891840  0.039788
104  1  0.8356 15.397100  8.937290  6.114150
105  1  0.6861 14.846500  8.707220 12.552600
106  1  0.8718 15.201000 14.670600  0.931423
107  1  0.7787 14.456000 14.470800  6.682630
108  1  0.8143 14.701900 14.732300 12.932800
109  2 -0.8036  3.438690 17.591900  0.950850
110  2 -0.7856  3.397410 18.139200  6.910340
111  2 -0.8276  2.842420 17.740400 13.287500
112  2 -0.8919  3.205370  5.910600  0.539712
113  2 -0.6996  2.734780  5.292700  7.268620
114  2 -0.7146  3.825690  5.662630 13.578000
115  2 -0.6568  2.574030 11.932700  0.522848
116  2 -0.7335  3.029930 11.305800  7.002650
117  2 -0.8529  3.021660 11.954100 13.205500
118  2 -0.7786  9.276070 17.892700  0.455679
119  2 -0.8866  8.753780 17.424500  7.052420
120  2 -0.7999  9.177030 17.374300 12.467200
121  2 -0.7421  8.719610  5.655160  0.074775
122  2 -0.8361  9.096520  5.647100  6.493550
123  2 -0.7633  9.095090  5.603200 12.755200
124  2 -0.8931  8.989770 11.685400  0.367409
125  2 -0.7305  9.001610 11.441700  5.880800
126  2 -0.7302  8.948920 11.525400 12.369000
127  2 -0.8761 15.104800 17.399100  0.899042
128  2 -0.6908 14.559500 17.452400  6.365710
129  2 -0.7315 14.885200 18.033600 12.253900
130  2 -0.8105 15.526600  5.402690  0.326607
131  2 -0.7968 15.072400  5.951240  6.464820
132  2 -0.7606 15.125400  5.347390 13.300700
133  2 -0.7958 15.124600 11.650900 -0.074761
134  2 -0.7679 15.250500 11.951100  6.363400
135  2 -0.7457 15.151400 11.528700 12.531400
136  2 -0.8238  3.065940  2.347870  4.034410
137  2 -0.6461  2.717130  2.281850 10.344800
138  2 -0.7770  3.563120  2.733610 16.664600
139  2 -0.8533  2.873780  9.208770  3.615190
140  2 -0.8328  3.325910  8.785560 10.060100
141  2 -0.7844  3.064980  8.565190 15.901000
142  2 -0.6764  2.914160 14.913800  3.395570
143  2 -0.7292  3.218970 15.071400  9.008030
144  2 -0.7705  3.508340 14.706400 15.893600
145  2 -0.7317  9.163590  2.718520  3.707350
146  2 -0.8726  9.075840  2.682670  9.665520
147  2 -0.8066  9.369200  2.472060 15.457100
148  2 -0.6835  8.981470  8.717370  3.161560
149  2 -0.7050  9.390160  9.378800  9.058810
150  2 -0.7227  9.143880  8.861880 15.893800
151  2 -0.8995  9.296920 14.596600  3.779800
152  2 -0.7667  9.665970 14.857800  9.769080
153  2 -0.7777  9.672580 13.873100 15.505700
154  2 -0.8164 14.942200  2.646350  3.896440
155  2 -0.7093 15.097300  2.691500 10.052500
156  2 -0.8359 14.859400  2.054880 15.931600
157  2 -0.8128 15.509400  8.649820  3.400960
158  2 -0.6991 15.608300  8.785300  9.168410
159  2 -0.7669 15.140700  8.751410 15.629300
160  2 -0.8759 14.941700 14.139900  3.396630
161  2 -0.8218 15.112100 14.599000 10.066500
162  2 -0.7702 15.113100 14.868100 15.720000
163  2 -0.7966 18.219000 17.663200  3.867190
164  2 -0.7968 -0.003234 17.831000 10.187300
165  2 -0.7467 18.160000 17.590200 15.784600
166  2 -0.7002 18.267800  5.959280  3.622560
167  2 -0.7121 -0.382618  5.393560  9.936320
168  2 -0.8757  0.127102  5.047840 15.738100
169  2 -0.6178  0.872277 11.982200  3.677040
170  2 -0.7169  0.400493 11.896200  9.349330
171  2 -0.7886  0.383304 11.882600 15.780300
172  2 -0.9081  6.193340 -0.505876  3.347380
173  2 -0.7539  6.448700 17.399300  9.459200
174  2 -0.7895  5.944420 17.745900 15.504300
175  2 -0.7524  6.250860  6.206940  3.976460
176  2 -0.7919  6.469560  5.397990  9.660420
177  2 -0.6724  6.022900  5.337100 15.916300
178  2 -0.8028  6.045930 12.063000  3.483690
179  2 -0.8649  5.926300 12.066600  9.795980
180  2 -0.7407  6.283270 11.952200 15.492700
181  2 -0.7522 11.677600 17.839000  3.459950
182  2 -0.7435 12.337600 17.424500  9.987060
183  2 -0.8383 11.952700 17.443500 15.461800
184  2 -0.7949 12.234900  5.468740  3.132280
185  2 -0.9019 12.477900  5.502490  9.726150
186  2 -0.7784 12.578100  5.068230 15.958700
187  2 -0.9008 11.841200 11.462900  3.076620
188  2 -0.6645 12.145700 11.355200  9.400990
189  2 -0.7211 12.171300 11.621300 16.067300
190  2 -0.8323  0.186946  2.254270  0.513259
191  2 -0.8510 18.103800  2.498390  7.157550
192  2 -0.6295  0.690638  2.503230 12.856300
193  2 -0.7981  0.182139  8.812860  0.660487
194  2 -0.8002 17.933400  8.520590  6.749240
195  2 -0.8583  0.123904  8.920250 12.797000
196  2 -0.7221 -0.019138 14.825800  0.585282
197  2 -0.6092 17.928700 14.615900  6.369420
198  2 -0.7531 17.558300 14.789000 13.000500
199  2 -0.8005  6.596840  2.118060  0.603086
200  2 -0.7160  5.909660  2.612920  6.603920
201  2 -0.8121  6.280780  2.627980 12.436000
202  2 -0.7158  5.903520  8.425480  0.155335
203  2 -0.7186  6.239720  8.830720  7.048700
204  2 -0.8656  6.364390  8.967610 12.814900
205  2 -0.7893  5.662060 15.071100  1.343620
206  2 -0.7931  6.196300 14.737300  6.893770
207  2 -0.7698  6.116520 14.845300 13.031600
208  2 -0.8846 12.531600  2.145630  0.758271
209  2 -0.7513 12.230000  2.400380  6.629720
210  2 -0.7754 12.439700  2.296770 13.010800
211  2 -0.7316 12.270700  8.795250  0.901617
212  2 -0.7619 12.617300  9.373510  6.486740
213  2 -0.7951 11.710400  8.578830 12.780000
214  2 -0.8543 12.515500 14.559200  0.699290
215  2 -0.8398 11.789400 14.580400  6.496390
216  2 -0.7659 12.116200 14.190100 12.646600

