Generated by pymatgen.io.lammps.data.LammpsData

320  atoms

  2  atom types

0.000000 16.864293  xlo xhi
0.000000 23.165087  ylo yhi
0.000000 24.472453  zlo zhi

Masses

1  208.9804
2   78.9600

Atoms

1    1  0.9012  1.178460 11.773700 10.138700
2    1  0.8162  1.383880 11.262800 23.146500
3    1  0.8617  0.923960 22.667500 10.506100
4    1  0.8331  1.452300 23.476000 23.100500
5    1  0.8511  5.276950 11.528300 10.642100
6    1  0.7536  5.139230 11.090900 22.504100
7    1  0.8702  5.308260 23.004100 10.378600
8    1  0.8229  5.598450 23.299800 22.435500
9    1  0.7946  9.699040 11.058000 10.415300
10   1  0.8115  9.714730 11.483200 22.990400
11   1  0.8146  9.841870 -0.015312  9.994270
12   1  0.8136 10.022100 22.908300 22.487100
13   1  0.7815 13.612700 11.319100 10.887600
14   1  0.8535 13.943900 11.256600 22.639300
15   1  0.8379 13.487000 23.279200 10.787400
16   1  0.7895 14.106700 23.347900 22.875300
17   1  0.8218  3.447660  0.820219  1.920660
18   1  0.8318  3.312450  0.548499 14.365500
19   1  0.8111  3.214940 12.166200  2.491310
20   1  0.8550  3.083060 12.544100 14.308800
21   1  0.8054  7.846140  0.809381  1.671740
22   1  0.8307  7.181620  0.949677 14.732400
23   1  0.8260  7.203300 11.994300  1.755220
24   1  0.8206  7.673640 12.222700 14.252600
25   1  0.8212 11.855600  1.050210  2.070910
26   1  0.7819 11.700100  0.576611 14.185700
27   1  0.7566 11.508000 12.219900  1.716050
28   1  0.8452 11.508200 12.125100 14.044600
29   1  0.8714 15.852500  0.652197  1.975810
30   1  0.8514 15.803700  0.624536 14.139000
31   1  0.8516 16.106900 12.220800  2.144290
32   1  0.8294 15.908800 12.550100 14.278300
33   1  0.8106  3.339090  5.709020  8.352780
34   1  0.8281  3.368050  5.634350 20.268100
35   1  0.7972  3.250090 17.673400  7.467910
36   1  0.8752  3.051960 17.637400 19.987600
37   1  0.7964  7.685520  5.524790  8.447320
38   1  0.8467  7.440170  5.599350 20.249700
39   1  0.8189  7.652190 17.475700  7.770840
40   1  0.8031  7.263520 17.361200 20.523100
41   1  0.8441 12.038900  5.537390  7.696160
42   1  0.8011 11.685900  5.561990 19.962800
43   1  0.7913 11.793700 17.740500  7.940890
44   1  0.8294 11.636300 17.621300 19.913000
45   1  0.8056 15.886900  5.890080  7.971580
46   1  0.8250 15.423300  5.673690 20.212500
47   1  0.8440 16.122400 17.485300  7.802510
48   1  0.8320 15.681400 17.168300 20.122600
49   1  0.8494  0.813586  6.715320  4.584220
50   1  0.8200  1.214710  6.729260 16.392500
51   1  0.8800  1.348130 17.940500  4.540770
52   1  0.8257  1.167380 17.765700 16.243300
53   1  0.8201  5.373380  6.281250  4.689590
54   1  0.8166  5.364020  6.264900 16.815300
55   1  0.7802  5.633470 18.079500  4.203420
56   1  0.7931  5.282270 18.150500 16.453900
57   1  0.8072  9.588680  6.516510  4.339240
58   1  0.8152  9.821550  6.179830 16.655200
59   1  0.8352  9.486860 17.215700  3.388550
60   1  0.8718  9.317400 18.149800 16.145600
61   1  0.7818 13.598400  6.521210  4.484860
62   1  0.7694 13.986700  6.436110 16.945700
63   1  0.8284 14.152400 18.087900  4.230250
64   1  0.8198 13.562400 18.077400 16.331900
65   1  0.8736  1.347880  2.248730  6.205030
66   1  0.8678  1.070350  1.866470 17.997300
67   1  0.8344  1.661480 13.441400  5.772420
68   1  0.8419  1.200200 14.260600 17.588000
69   1  0.8344  5.312710  2.109100  5.887260
70   1  0.7855  5.207610  2.547100 18.203400
71   1  0.8491  5.754570 13.850400  6.362590
72   1  0.8475  5.267870 14.025500 18.121500
73   1  0.8817 10.093700  2.049160  6.448920
74   1  0.9056  9.279170  2.282280 18.621200
75   1  0.8653  9.705140 13.867300  5.746660
76   1  0.8339  9.473790 14.058900 17.946700
77   1  0.8225 14.186700  2.347880  6.405000
78   1  0.8367 13.735100  2.370910 18.042700
79   1  0.8170 13.639800 13.750300  5.939600
80   1  0.8172 13.774600 13.964400 18.393100
81   1  0.8262  3.503290  9.642800  6.618210
82   1  0.7793  3.290350 10.143200 18.348800
83   1  0.8659  3.330080 21.473900  6.424490
84   1  0.8456  2.943660 21.643700 18.941300
85   1  0.8243  7.273070  9.661470  6.544840
86   1  0.7940  7.738120 10.221100 18.330800
87   1  0.8500  7.577860 21.540500  6.742020
88   1  0.8513  7.249850 21.520300 18.413700
89   1  0.8290 11.701700 10.061000  6.396880
90   1  0.8320 11.518700  9.911670 18.406200
91   1  0.8536 12.032100 21.671300  7.012980
92   1  0.8658 11.565300 21.339900 18.298100
93   1  0.8192 15.552300 10.150400  6.796570
94   1  0.8387 16.108500  9.655360 19.017200
95   1  0.8538 16.073200 21.631600  6.535820
96   1  0.8551 15.712200 21.500700 18.926600
97   1  0.8271  2.919400  8.193230 12.875500
98   1  0.8366  3.505990  8.103100  0.393394
99   1  0.8334  3.110500 19.627100 12.306200
100  1  0.7842  3.456720 19.732900  0.456983
101  1  0.8491  7.217770  8.070700 12.525000
102  1  0.7812  7.565350  8.230430  0.125904
103  1  0.8454  7.227090 19.814300 12.678000
104  1  0.7689  7.154740 20.207800  0.573230
105  1  0.8414 11.625500  7.996200 13.014500
106  1  0.8364 11.415000  7.730690  0.343495
107  1  0.8228 11.497700 20.015100 12.659200
108  1  0.8016 11.536200 19.445700 24.752200
109  1  0.8045 15.913300  7.979260 13.118300
110  1  0.8709 15.800500  7.908870  0.408575
111  1  0.8695 15.740000 19.485300 12.753100
112  1  0.8163 16.303200 19.395300  0.482575
113  1  0.8228  0.995275  4.071620  0.270683
114  1  0.8131  1.348440  4.662740 12.207100
115  1  0.8476  1.145530 15.102400  0.142795
116  1  0.8582  1.376560 15.666700 11.776200
117  1  0.8601  5.225690  4.276640 -0.382581
118  1  0.7990  5.278980  3.702700 11.647300
119  1  0.7686  5.283850 15.270300  0.444096
120  1  0.8177  5.455130 15.748200 12.260100
121  1  0.8511  9.357190  4.357350 24.425500
122  1  0.7889  9.468250  4.142590 12.308200
123  1  0.7338  9.488700 15.846600 23.931000
124  1  0.8617  9.282640 15.711100 12.167300
125  1  0.8410 14.083900  4.175730  0.308361
126  1  0.8235 13.583400  4.162890 12.148900
127  1  0.7871 14.052300 15.611300 24.013400
128  1  0.8565 13.436500 15.737600 12.231700
129  2 -0.4823  1.350430  3.863520  9.032830
130  2 -0.4180  0.766668  4.046040 20.713500
131  2 -0.4465  1.476650 15.397000  8.925700
132  2 -0.4431  1.119050 15.647300 20.741700
133  2 -0.5667  5.546850  3.610780  8.845070
134  2 -0.5803  5.489730  3.946270 21.132900
135  2 -0.5092  5.527050 15.536000  8.514100
136  2 -0.4452  4.962780 15.535200 20.808500
137  2 -0.5275 10.104200  4.084070  8.839930
138  2 -0.4739  9.443580  3.566410 21.090100
139  2 -0.4309  9.477430 15.655800  8.864410
140  2 -0.5479 10.109400 15.816200 20.883000
141  2 -0.5624 13.904900  3.930610  8.855540
142  2 -0.5275 13.543400  3.604230 20.812100
143  2 -0.4366 14.082100 15.738700  8.807670
144  2 -0.5602 13.949100 15.409800 20.887200
145  2 -0.4656  3.391270  8.439480  3.865190
146  2 -0.5437  3.220390  8.717410 15.753900
147  2 -0.5165  3.255230 19.898700  3.644480
148  2 -0.4816  2.856090 19.927600 16.253100
149  2 -0.5335  7.704730  8.294020  4.126430
150  2 -0.4837  7.328540  8.136130 15.879000
151  2 -0.4647  8.092780 19.745400  3.653380
152  2 -0.5688  7.492240 20.115100 15.667900
153  2 -0.5142 11.758100  8.318950  3.539030
154  2 -0.5650 11.716500  8.348000 15.945500
155  2 -0.3758 11.741900 19.889600  3.565660
156  2 -0.5383 11.264100 20.351600 15.509300
157  2 -0.5114 15.643800  8.211090  3.909210
158  2 -0.5383 15.732400  8.601310 16.066500
159  2 -0.4679 16.061600 20.056900  3.874410
160  2 -0.4521 15.747300 19.961300 15.848700
161  2 -0.4821  3.342860  9.547710 10.008400
162  2 -0.5743  3.041220  9.308450 22.289400
163  2 -0.5641  3.268520 21.227100  9.789350
164  2 -0.5142  3.070430 21.434600 22.160900
165  2 -0.5497  7.147070  9.642120 10.013300
166  2 -0.5178  7.605810  9.414000 22.022800
167  2 -0.5056  7.402880 21.074100  9.867450
168  2 -0.4955  7.266540 21.385400 21.938500
169  2 -0.5281 11.733600  9.459320  9.830060
170  2 -0.5044 11.700300  9.663480 22.280800
171  2 -0.6233 11.656500 21.068500  9.681840
172  2 -0.4929 12.010300 20.977500 22.022300
173  2 -0.4914 15.809900  9.776130 10.089300
174  2 -0.5153 16.092300  9.442460 22.059600
175  2 -0.5062 15.482100 21.168100 10.236700
176  2 -0.4772 16.401500 21.437200 22.275800
177  2 -0.5290  0.958099  2.487420  2.654360
178  2 -0.4603  1.235920  2.547330 15.025300
179  2 -0.5871  1.094800 13.990700  2.740590
180  2 -0.5970  1.014140 14.473200 14.461800
181  2 -0.5013  5.535200  2.492850  2.624850
182  2 -0.5390  5.166660  2.649040 14.869900
183  2 -0.5157  5.468450 14.010100  2.990380
184  2 -0.5385  5.265170 14.308900 14.746700
185  2 -0.5222  9.632030  2.712100  2.551310
186  2 -0.4734  9.505760  2.453060 15.171000
187  2 -0.5241  8.962650 14.079600  2.718600
188  2 -0.5193  9.747630 14.310800 14.727500
189  2 -0.5811 14.161900  2.514180  2.767950
190  2 -0.5371 14.127300  2.551940 15.087500
191  2 -0.4876 14.098800 14.120700  2.735560
192  2 -0.5530 13.242900 14.102200 14.526500
193  2 -0.5396  1.038580 11.072900  4.679640
194  2 -0.5407  1.194870 11.554400 16.373900
195  2 -0.4868  1.276170 22.538300  4.852220
196  2 -0.5613  1.109620 -0.519153 17.213100
197  2 -0.5567  5.198890 11.228800  5.206380
198  2 -0.5374  5.404260 11.172400 16.788900
199  2 -0.5409  5.253160 22.716800  4.890720
200  2 -0.5662  4.959250 22.722900 16.830600
201  2 -0.4838  9.582420 11.134700  4.762920
202  2 -0.6225  9.558320 11.534000 16.757100
203  2 -0.4683  9.812750 22.708800  5.211470
204  2 -0.5131  9.254680 22.914000 17.219400
205  2 -0.5351 13.829000 10.927200  4.809010
206  2 -0.4362 14.076100 11.288300 17.300000
207  2 -0.5097 13.727100 22.801400  5.165660
208  2 -0.5110 13.910500 22.644200 16.960900
209  2 -0.5753  3.328870  1.046200  7.512140
210  2 -0.5723  3.182240  1.096980 19.896900
211  2 -0.5734  3.258320 12.477700  7.767040
212  2 -0.5333  2.896810 12.846500 19.258900
213  2 -0.5657  7.973860  1.051250  7.741970
214  2 -0.5476  7.409140  0.862268 19.847900
215  2 -0.4841  7.795150 12.901800  7.912590
216  2 -0.5398  7.417670 12.990300 19.571700
217  2 -0.6472 11.993700  0.962672  8.019860
218  2 -0.5115 11.409000  0.646801 19.644100
219  2 -0.5502 11.547500 12.827400  7.571520
220  2 -0.4480 11.674400 12.293000 19.949200
221  2 -0.5459 16.073600  0.937004  7.910650
222  2 -0.5035 15.752200  1.047470 19.899600
223  2 -0.5241 16.164200 12.635700  7.768430
224  2 -0.4327 15.502400 12.399400 20.269200
225  2 -0.4776  3.289870  5.370280  1.910460
226  2 -0.5166  3.437480  5.571160 14.017300
227  2 -0.4956  3.191450 16.984200  1.786280
228  2 -0.5706  3.381630 17.257100 14.005100
229  2 -0.5467  7.116330  5.649310  1.406810
230  2 -0.4571  7.457080  5.085020 14.100600
231  2 -0.5849  7.272830 16.969400  1.812660
232  2 -0.5630  7.414700 17.063000 13.914100
233  2 -0.5635 11.680200  5.419760  1.548100
234  2 -0.5418 11.741800  5.304870 14.135400
235  2 -0.5874 11.694400 16.692200  1.585990
236  2 -0.5036 11.433900 17.226300 13.769100
237  2 -0.5764 15.677400  5.397920  1.872750
238  2 -0.5395 16.192700  5.444830 14.295000
239  2 -0.4978 16.246200 16.994200  1.982900
240  2 -0.5388 15.691100 16.958700 13.794900
241  2 -0.5940  0.990762  6.943910 11.216800
242  2 -0.4764  0.973943  6.528030 23.260800
243  2 -0.5354  1.100780 18.297500 10.666700
244  2 -0.4501  1.319420 18.088100 23.137000
245  2 -0.5226  5.144460  6.701080 10.881900
246  2 -0.5381  5.450010  6.900050 23.066800
247  2 -0.5048  5.165190 18.477900 10.819500
248  2 -0.4502  5.295880 18.486500 22.879700
249  2 -0.5171  9.245380  7.001760 11.068000
250  2 -0.5223  9.920840  6.579660 22.784000
251  2 -0.4977  9.493210 18.425600 11.200400
252  2 -0.5538  9.113060 18.720000 23.383200
253  2 -0.5253 13.679800  6.749200 11.511000
254  2 -0.5114 13.750800  6.639820 23.255500
255  2 -0.4612 13.766600 18.365000 10.933300
256  2 -0.5139 14.236400 18.521100 23.020200
257  2 -0.6132  1.206350  9.887650  1.123280
258  2 -0.5526  1.147430 10.767800 12.860200
259  2 -0.5733  1.100850 22.103600  1.267140
260  2 -0.5939  0.916048 21.617300 13.105800
261  2 -0.6640  5.342110 10.247900  1.238140
262  2 -0.5437  5.402430 10.359100 13.188500
263  2 -0.6909  5.373070 22.159400  0.986276
264  2 -0.6089  5.156440 21.944800 12.942200
265  2 -0.6895  9.593340 10.406300  1.102800
266  2 -0.6800  9.678340 10.274300 13.256100
267  2 -0.6150 10.013000 22.040900  0.628899
268  2 -0.5502  9.322710 22.288300 12.999600
269  2 -0.5525 14.053800 10.122300  0.943478
270  2 -0.5771 13.644200 10.427400 13.819600
271  2 -0.5645 13.959000 21.939200  0.985320
272  2 -0.6533 13.761400 21.813100 13.262900
273  2 -0.5534  3.095010  1.558960 11.518500
274  2 -0.6609  3.403590  2.270030 23.712400
275  2 -0.6072  2.989370 13.479400 11.570000
276  2 -0.6842  3.082430 13.184200 24.109700
277  2 -0.5681  7.214940  1.798150 11.352700
278  2 -0.5812  7.499630  2.174800 23.643600
279  2 -0.6107  7.270380 13.486700 11.727600
280  2 -0.6219  7.433320 13.044000 23.295500
281  2 -0.6481 11.575200  1.941650 11.322900
282  2 -0.5628 11.658500  2.227630 23.845000
283  2 -0.5854 11.601900 13.553600 11.298100
284  2 -0.5836 11.973800 13.643500 23.367600
285  2 -0.5687 15.810500  1.474500 11.554900
286  2 -0.6972 16.174000  1.927220 23.809300
287  2 -0.5213 16.060500 13.369400 11.246000
288  2 -0.6421 16.110700 13.342200 23.884900
289  2 -0.5812  2.996990  4.585630  5.699260
290  2 -0.5834  3.094520  4.564650 17.429300
291  2 -0.6267  3.051410 16.026500  5.194900
292  2 -0.6681  3.266040 16.105500 17.604100
293  2 -0.5470  7.543150  4.210950  5.560670
294  2 -0.6841  7.455880  4.181790 17.777900
295  2 -0.6015  7.496540 15.894700  5.208420
296  2 -0.5946  7.404310 16.157800 17.501300
297  2 -0.6739 11.718200  4.165070  5.440940
298  2 -0.6766 11.586900  4.207980 17.554800
299  2 -0.6174 11.634500 15.689000  5.447830
300  2 -0.6161 11.467000 16.519700 17.191100
301  2 -0.6403 16.377700  4.355850  5.703030
302  2 -0.5793 15.988000  4.585620 17.697900
303  2 -0.5669 15.920300 16.232700  5.203270
304  2 -0.6807 15.915700 15.975500 17.433100
305  2 -0.6173  1.017760  7.682010  7.211980
306  2 -0.6052  1.108700  7.628020 19.061200
307  2 -0.7332  1.316510 19.331700  6.800650
308  2 -0.5800  0.766221 19.184200 19.075000
309  2 -0.6853  5.414620  7.671270  7.144210
310  2 -0.5905  5.359170  7.556780 19.433700
311  2 -0.6552  5.491420 19.634300  6.963270
312  2 -0.5975  5.162870 19.468700 19.350100
313  2 -0.5593  9.856770  7.611780  7.119330
314  2 -0.6203  9.504760  7.411700 19.115200
315  2 -0.5673  9.567870 19.361100  6.714860
316  2 -0.6152  9.427510 19.305600 18.883600
317  2 -0.6473 13.585100  8.004020  7.252040
318  2 -0.6492 13.684800  7.894140 19.419500
319  2 -0.6449 14.331200 19.388100  6.917380
320  2 -0.6869 13.474900 19.385900 18.846900

