Generated by pymatgen.io.lammps.data.LammpsData

320  atoms

  2  atom types

0.000000 16.864293  xlo xhi
0.000000 23.165087  ylo yhi
0.000000 24.472453  zlo zhi

Masses

1  208.9804
2   78.9600

Atoms

1    1  0.7926  8.964690 12.726000  3.747760
2    1  0.8652  9.328290 10.321600 -0.057683
3    1  0.7107 16.695100  5.983170 16.677300
4    1  0.7319  3.632950  3.109180 18.266400
5    1  0.6422  6.089120 14.200500 13.273300
6    1  0.5978  5.331600 14.248300 16.595900
7    1  0.6636  5.699830 17.748400 15.939200
8    1  0.8010  4.583900  7.704580 16.231500
9    1  0.8151 11.433500  9.449250 11.008000
10   1  0.8167  5.185430 12.606900 23.565700
11   1  0.8460 11.442700 22.745400 12.318900
12   1  0.8353 14.434400 23.100600 23.447300
13   1  0.6914 15.895500  7.455950  3.358580
14   1  0.8259  5.258850  8.142170 22.989000
15   1  0.8456  2.204110 20.879400 13.094800
16   1  0.5803  1.814020  1.428970 24.041300
17   1  0.7877  4.463770 18.928400  6.869340
18   1  0.7333 15.013500  7.853260  6.913400
19   1  0.6938  1.733120  8.634980 24.381000
20   1  0.8180  2.826040  4.471350 12.292300
21   1  0.7925  8.128500  3.119680 12.350900
22   1  0.8558 16.661600  2.023990 18.943700
23   1  0.7797 11.192000  7.655760  3.513860
24   1  0.7160  3.572100 12.223000  9.286060
25   1  0.8032  8.741370  2.591760  8.057540
26   1  0.7633 15.389100 21.486800 12.053400
27   1  0.7597 11.017000 12.798500  7.108910
28   1  0.7813  5.826020 10.902300 13.771200
29   1  0.7712  2.857380  4.699020 21.333800
30   1  0.9195  7.402730 21.562900 12.252500
31   1  0.5088 -0.106820  4.098020  2.427110
32   1  0.6139 14.806700  2.044960  7.102820
33   1  0.6553  1.595410 12.245000  6.383270
34   1  0.7010  1.832320 23.138800 21.339100
35   1  0.6571 14.709600 14.342000 10.085700
36   1  0.7268  1.777780 19.933700 22.905500
37   1  0.6506  1.746720  1.011010  7.736160
38   1  0.8559  7.979600 11.940500 21.383400
39   1  0.5297  8.101600 15.443100 10.696300
40   1  0.7160  5.506240 20.267200  2.048180
41   1  0.8297 12.219000 19.532400 10.646500
42   1  0.6238 15.913400  6.671720 12.607600
43   1  0.8350  8.957440 20.520700 15.498400
44   1  0.5990  4.806500 14.848100 20.064800
45   1  0.7528  2.290870  6.957820  5.831060
46   1  0.7531 13.975700  4.590620 18.185400
47   1  0.6337  0.696198 20.206800  9.166180
48   1  0.7425 15.867400 11.248700 11.980700
49   1  0.8684 14.198400 12.650700  4.859830
50   1  0.5320 16.492700  4.602890  9.140800
51   1  0.6762 12.202400 22.937900  6.519340
52   1  0.6438  8.418520 13.574400 18.007900
53   1  0.7578  7.691610  8.355960  5.822960
54   1  0.7380  6.930140  8.031220 12.974000
55   1  0.7631  2.476590 14.902100  2.934690
56   1  0.6351  6.503210 17.943700 19.459300
57   1  0.7324  9.817890  9.916040 14.679200
58   1  0.7526  1.363550  9.577990 15.222400
59   1  0.6500 12.065900 22.599400  3.361710
60   1  0.6370  8.589480 17.723200 12.562000
61   1  0.7029  3.163360  4.278070  3.804180
62   1  0.6648 10.941900  4.880070 15.730000
63   1  0.9119  5.210810  8.416610  2.463650
64   1  0.6726  6.276360  0.227078 24.255900
65   1  0.7673  3.327510  8.971970 11.209400
66   1  0.6890 13.870500  4.092960  3.491280
67   1  0.6337  7.832180 17.616400  4.182320
68   1  0.8263  7.002280 10.217700 17.931100
69   1  0.7227  4.415970  0.783519  9.220590
70   1  0.6758  1.672830 21.468800  5.419520
71   1  0.7918 10.277400 19.658300  5.559080
72   1  0.6625  5.267550 19.964300 22.273700
73   1  0.7257  7.599530  1.151250 15.958600
74   1  0.6847  3.599770  0.140835  2.706900
75   1  0.8048  8.311680 16.972100 21.574800
76   1  0.6528  5.112110 18.393600 12.434500
77   1  0.7578 12.574000  4.435900  0.403785
78   1  0.5927  7.057260 22.305400 19.318900
79   1  0.7513 11.034700 16.137900  8.511740
80   1  0.5776  7.011490  8.934040  8.857690
81   1  0.7765  3.118960  4.615230  8.250230
82   1  0.6128  7.706770  6.141730 16.836500
83   1  0.6717 15.653800  1.735580 10.556400
84   1  0.6614  6.543720  4.773070 14.750700
85   1  0.8083  5.388210 12.600400  3.317350
86   1  0.6691  3.766370 11.001300 20.512300
87   1  0.8718  7.928960 22.161200  8.863250
88   1  0.7078 10.731700 19.643500  1.049120
89   1  0.7824  8.281310  6.567370  1.139540
90   1  0.5335 14.027700  6.645470 10.160300
91   1  0.6923 11.850000  4.264050  8.254190
92   1  0.8274 12.337500  1.439840 15.898700
93   1  0.6603 12.176000 12.839500 11.572400
94   1  0.7810  7.289050  2.695780 20.286200
95   1  0.7099  6.374230 16.749300  1.636140
96   1  0.7299 10.652500 22.325400 18.953100
97   1  0.6562 15.188100 21.926700  5.324840
98   1  0.6957 11.721300  3.057320 21.413300
99   1  0.5975  1.017970 15.579300  8.337790
100  1  0.7685  1.532010 19.172100  3.386720
101  1  0.8228 10.111700  4.793680  5.158280
102  1  0.6820  6.868320  2.056360  2.812360
103  1  0.7221  2.475520 16.979500 11.061700
104  1  0.7020  9.980940 23.207800 23.174700
105  1  0.8098 12.838300 16.950600  4.107610
106  1  0.7996 14.878000  7.653920 24.411400
107  1  0.7517  3.243050  1.565430 14.731700
108  1  0.7200 15.330600 21.114400  1.980170
109  1  0.7077 12.400400  4.458240 12.609900
110  1  0.7617 15.480600  4.372820 22.935500
111  1  0.6665 16.363900 15.785200  4.894640
112  1  0.5871 15.587200 18.274500  7.429690
113  1  0.7153  5.810800  4.272260 23.578900
114  1  0.7446  9.769830 14.048200 13.614300
115  1  0.6702  1.794020 10.002700  3.860130
116  1  0.7559  2.256440 12.746900 13.541100
117  1  0.6835  0.223324  0.895834  2.034380
118  1  0.6320  4.594430 20.603500 17.407600
119  1  0.6973  7.529970 17.484100  7.948080
120  1  0.7024 10.905600  9.503600  7.658980
121  1  0.5932  9.231600  2.900310  1.092930
122  1  0.7442 -0.031656  1.468910 13.716800
123  1  0.8174  9.175940 13.867300  0.462023
124  1  0.6947  7.487570 12.085000  9.656870
125  1  0.8684 10.970800  7.261260 22.820100
126  1  0.7334  8.619480  6.328150  9.927340
127  1  0.8141  5.065820 15.468200  6.044850
128  1  0.7011  0.267147 11.038100  8.398360
129  2 -0.5638  1.971830  6.089390 10.257400
130  2  0.0273 14.614700 20.702700 17.300600
131  2 -0.4854 13.099100 11.075800  7.337850
132  2 -0.7903  2.154230 14.790100  5.913430
133  2 -0.4765  7.797070  4.455620  6.367440
134  2 -0.6155  3.382890 21.827400  7.388800
135  2 -0.5270  5.649100 14.480600  9.999580
136  2 -0.6886  5.575870 16.909900 21.750200
137  2 -0.5852  7.542630  0.831881 10.787000
138  2 -0.7451 13.277700  5.791350 22.762800
139  2 -0.4517  2.165150  0.188215 18.545300
140  2 -0.5753 13.246100 17.127900 10.104800
141  2 -0.7143  6.538950  3.196080 17.579400
142  2 -0.4221  2.122090  7.910490 17.736000
143  2 -0.0977 10.729000 18.478000 19.898800
144  2  0.0043 15.254400 17.881400 19.404800
145  2 -0.3880 10.791000 11.831200 22.841200
146  2 -0.3404 10.224100 15.201500 21.751000
147  2 -0.2785 11.323800 13.902700 16.041900
148  2 -0.4175  1.331490 22.511100 15.287800
149  2 -0.7396  0.350965  6.179570 24.402700
150  2 -0.7354  8.617210  8.885290 11.274300
151  2 -0.4943  5.855880 21.933500  3.969390
152  2  0.0029 12.544500 16.206700 19.957300
153  2 -0.0160 11.924600 10.984900 19.425700
154  2 -0.4785  3.453980 19.761800 10.070800
155  2 -0.7322 11.133400  7.450070  9.742070
156  2 -0.1038 11.599300  9.049970 16.835200
157  2 -0.4637 15.614800 10.268900  5.758150
158  2 -0.6050  8.118550 16.117900 14.999200
159  2 -0.7243  3.735970 22.183400  0.118086
160  2  0.0182 13.303200 12.070700  0.314473
161  2 -0.3006 14.962700  8.993880 14.812800
162  2 -0.4300  0.290407 16.871100  2.453960
163  2 -0.4760  4.570550 22.069000 11.910900
164  2 -0.0889 12.185600 16.824600 23.380400
165  2 -0.6830 15.513600 13.507200  7.442300
166  2 -0.9395  6.461690 11.793400 19.636900
167  2 -0.7859  6.783130 19.657900 14.416200
168  2 -0.0603 14.026200 21.056000 19.176100
169  2 -0.5272  5.474810  9.872270  4.651470
170  2 -0.0524 12.698800 14.674200 18.993300
171  2 -0.6463 10.969300  7.976480  1.037020
172  2 -0.2381 13.233400  9.404110 22.610700
173  2 -0.1870  1.047420 11.451500 17.903800
174  2 -0.5724  4.175750 14.439700  1.154950
175  2 -0.5798  3.965040 16.426400 17.928300
176  2 -0.3893 12.936700 20.467500 13.370300
177  2 -0.6741 14.363700  3.009040 20.008200
178  2 -0.2384  2.080390 18.754700 18.888400
179  2  0.0322 13.211000 11.681500 18.051400
180  2 -0.2734 12.748600 10.532500  3.306690
181  2 -0.5845  6.933620 18.761900  0.096978
182  2 -0.6159 14.342300  0.867691 12.711900
183  2 -0.8138  8.604970 12.599600 12.022300
184  2 -0.7155  6.422400 10.599300 22.652700
185  2 -0.4856 10.509100 23.285000  8.944900
186  2 -0.5804 14.268100  3.543940 15.499900
187  2 -0.0484  0.950536 15.134300 22.249800
188  2 -0.1631  1.504170 14.283400 19.611400
189  2 -0.6444  1.754670  3.275880  5.962060
190  2  0.0209 16.616600 16.431900 23.041300
191  2 -0.5882 12.727600 21.660900  0.416033
192  2 -0.0572 14.924900 13.010700 15.913500
193  2 -0.6832 15.752000 19.291300  4.453160
194  2 -0.7069  3.982590  8.523190 13.911600
195  2 -0.7491 16.076200 22.703200  7.716460
196  2 -0.7642 10.231400  1.511040 17.806900
197  2 -0.2934 14.489700 15.257900  2.549950
198  2 -0.4014 14.091800  6.808170 16.835400
199  2 -0.4955  5.220770  3.613350 10.650100
200  2 -0.6062  1.131830  2.973890 16.692200
201  2 -0.8053 10.582000 11.509100  9.410580
202  2 -0.2561  8.488970  8.160660 21.539100
203  2 -0.5095  4.883780 12.903700  6.222700
204  2 -0.0289 10.409000 17.689400 18.165700
205  2 -0.6953  6.913580 19.891800 10.576900
206  2 -0.6938  0.575941  9.349410 12.364800
207  2 -0.0557  0.595882 20.393600 18.583300
208  2 -0.5820  7.932320 19.840300 21.478700
209  2 -0.1614 15.787200 19.498800 22.465300
210  2 -0.6285  3.916140 15.738100 13.099200
211  2 -0.7561  1.588220 18.306600  7.067850
212  2  0.0595 15.800200 13.645900  0.634629
213  2 -0.6296 11.733400 23.260400 21.363600
214  2 -0.6391 11.990700  2.124830  1.066540
215  2 -0.5741 14.606300 13.510700 12.516000
216  2 -0.7927  4.200230 11.528900 11.901600
217  2 -0.6865  1.961920 13.974900 10.489200
218  2 -0.6261  4.581490  2.869710 20.759900
219  2 -0.6255  3.915570 10.634300  1.130360
220  2  0.0326 13.441400 15.367500 23.202300
221  2 -0.6930 -0.178299  0.898009  4.653380
222  2 -0.4579  5.766860  5.693600 21.428100
223  2 -0.4734  4.473550  5.461420  6.064110
224  2 -0.7773  8.688950  6.084410 14.150400
225  2 -0.7078  1.458850  9.459760  6.541930
226  2 -0.5455 12.311600  7.159900 12.711500
227  2 -0.4516  9.711740 22.592000  5.667990
228  2 -0.4082 10.692900  5.238370 20.125100
229  2  0.0128 16.242100 18.099800 15.163200
230  2 -0.6060  5.247600 23.022400 16.314400
231  2 -0.7128  1.066630 22.572800 11.377000
232  2 -0.4675  3.200250 18.884200 14.833400
233  2 -0.4916  9.135890  9.824500  3.533590
234  2 -0.4783  2.773960  7.999980 21.446000
235  2  0.0313 14.039500 12.666000 22.793300
236  2 -0.5672  9.683710 16.732600  1.535660
237  2 -0.7021  5.093350  6.501270  0.695215
238  2 -0.8213  7.172240  9.088350 15.649300
239  2 -0.1206 15.366800 18.694000 24.143200
240  2  0.0873  0.002122 16.617900 16.610400
241  2 -0.5887 14.858700 11.169200  9.584420
242  2 -0.2557  0.609209 14.826300 13.472500
243  2 -0.7261  2.392430  6.986130  2.810980
244  2 -0.3972 10.967100 12.188800  1.542890
245  2 -0.6329 11.034700  2.487130  5.921160
246  2 -0.6117  0.266441 21.833200 24.382200
247  2 -0.6018  8.662450 22.113000  1.702110
248  2 -0.6029  7.570900 19.586400  6.359610
249  2 -0.5200  7.271940  6.680970  3.928140
250  2 -0.6138  7.405760  8.728960  0.833479
251  2 -0.6279  9.768790 20.229400 12.135600
252  2 -0.4478 16.208200 22.926300 21.098000
253  2 -0.7535 13.454100  2.632750  9.460390
254  2 -0.4189 -0.057632  5.723450 19.770900
255  2 -0.6212 14.286900  1.004050  3.098350
256  2 -0.2834  9.541030 10.057000 19.985500
257  2 -0.3095 14.971600  0.496392 16.519700
258  2 -0.2300 10.286900  7.739220 17.757900
259  2 -0.8325  1.558480 21.530400  2.884450
260  2 -0.1120  1.493420 13.775800 16.767200
261  2 -0.5510 13.535600 16.046600  6.543630
262  2 -0.7498  9.987250  7.147590  6.669110
263  2 -0.6718  5.124680 22.765300 21.176400
264  2 -0.6001  5.804140  6.929450 10.770000
265  2 -0.6311  8.776160 14.794600  7.876350
266  2 -0.5762  7.212260 12.092500  1.226930
267  2 -0.6711 13.053600  5.706330  6.223050
268  2 -0.4048 11.644900 21.505800 16.035900
269  2 -0.0220 14.269900  8.427780 20.129700
270  2 -0.6084  4.681000 16.560700  8.230430
271  2 -0.6536  3.854390  5.321500 15.376900
272  2 -0.7271  7.941520 20.194900 17.910400
273  2  0.0263 13.147800 19.260800 22.082000
274  2 -0.3999  5.259240  2.601660  4.903590
275  2 -0.6968  0.179607  4.180530 13.330900
276  2 -0.7346  7.000940 14.938000  3.669030
277  2 -0.7251 11.050600  2.794960 14.336800
278  2 -0.7848 15.909300  2.199500  0.254767
279  2  0.0484 14.476800 15.071300 15.223200
280  2 -0.6906 10.559100 16.010400 11.964900
281  2 -0.7962  7.948480  1.827130 22.757000
282  2 -0.5074 13.025800 19.679700  6.871150
283  2 -0.5673 10.210500 18.930900  8.302280
284  2 -0.4850  7.940250 11.879100  6.281230
285  2 -0.6521  8.920710 23.006400 13.854300
286  2 -0.1897 11.278400 19.944200 22.283600
287  2 -0.4043  7.048820  0.665549  7.159180
288  2  0.0565 15.293600 12.504800 19.780600
289  2 -0.8079 14.048400  6.400360  2.241700
290  2 -0.6851  0.824988  2.725090 21.615000
291  2 -0.5998  0.311992 19.105600 12.045200
292  2  0.0529 12.591900 16.866800 16.889800
293  2 -0.6780  9.981400  3.885220 10.642000
294  2 -0.6874  9.436150  5.019340 23.538300
295  2 -0.5398  0.436939 12.621100  3.664410
296  2 -0.6327  7.888580 16.198200 18.189400
297  2 -0.7311 10.836800  4.672130  2.591070
298  2 -0.5034 11.797500 13.923400  4.701840
299  2 -0.7427  1.558940  2.924130 10.292700
300  2 -0.6139  3.645050 11.375100 15.579200
301  2 -0.7138 16.330100  5.591380  6.101430
302  2  0.0126 15.930400 15.830000 19.801300
303  2 -0.5535 10.082800 16.596900  5.493400
304  2 -0.7333  7.246740 13.795400 23.048100
305  2 -0.8339  4.917840  2.393530  1.156040
306  2 -0.0175 16.255500  9.181080 19.309900
307  2 -0.0394 11.862200 17.420500 15.021800
308  2 -0.4531  2.938350 18.562100  0.285532
309  2 -0.6508  5.740470  2.682930 13.853800
310  2 -0.4539  5.658740  7.832710 18.781500
311  2 -0.5341  4.459670  9.396460  7.870900
312  2 -0.6827 12.542400 19.780700  3.729080
313  2 -0.3820 12.596300 10.786400 13.914900
314  2 -0.8083  7.151670 12.528600 15.321000
315  2 -0.5344 13.498000 22.091700 10.235400
316  2 -0.7500  4.741600 17.933700  4.171510
317  2 -0.2070  0.716879 11.742000 21.499800
318  2 -0.4975 16.129200  9.624170  1.851290
319  2 -0.5663 16.350500  8.059890  9.714880
320  2 -0.1718  1.126860 12.967000  0.085362

