Generated by pymatgen.io.lammps.data.LammpsData

320  atoms

  2  atom types

0.000000 24.637781  xlo xhi
0.000000 17.058433  ylo yhi
0.000000 27.370788  zlo zhi

Masses

1  208.9804
2   78.9600

Atoms

1    1  0.7733 -1.115500  1.247920  2.244050
2    1  0.7007  0.217133 17.283400 17.493000
3    1  0.5000  3.227610 10.099400  3.519890
4    1  0.7636 22.193700  9.204210 13.860600
5    1  0.6329 12.152900  8.508520  4.648450
6    1  0.6500  8.280430 16.916100 16.705700
7    1  0.6528 16.028000 14.446100  4.730250
8    1  0.8366  6.862190  8.982420 17.863300
9    1  0.7065  2.523470  6.020300 10.141000
10   1  0.7457  2.754920 17.641400 26.907900
11   1  0.7012 -0.201441 14.533700  8.364890
12   1  0.7612  4.775110 16.889700 23.085400
13   1  0.7715 14.193800  6.792780 15.604700
14   1  0.6217 16.622400  6.423740 24.957600
15   1  0.7774 15.120800 14.504500 13.051100
16   1  0.6081 16.748900 14.160000  0.684675
17   1  0.7890  3.445740 17.790700  4.529330
18   1  0.8452  3.098080  5.250460 19.510100
19   1  0.7502  5.495740 14.500900  1.179430
20   1  0.7278  3.844430 11.398300 17.701300
21   1  0.7233 14.614300  3.840730  9.252590
22   1  0.8422 16.891300  3.304200 18.036900
23   1  0.5939 18.505800 12.286700  3.348060
24   1  0.6389 15.001000 12.341900 20.785900
25   1  0.6919 21.624000  1.492070 14.698400
26   1  0.5838 21.614900 17.641500 23.862400
27   1  0.7870  0.543455 10.900000 11.179200
28   1  0.6796 -0.699911 10.153100 24.257400
29   1  0.6342 12.419600 17.126500 11.857600
30   1  0.8580 10.064900 18.034700 19.987600
31   1  0.7931  6.018840 13.085500 10.212300
32   1  0.7502 11.470600  9.220490 19.304300
33   1  0.6893  1.400330  6.252350  5.463930
34   1  0.7988 19.931000  6.192420 17.416900
35   1  0.6364 21.779700 14.293900  3.270840
36   1  0.7380 -0.528770 12.992500 14.958300
37   1  0.6153 12.367400  6.642340  7.929050
38   1  0.7139  7.551640  3.706700 17.450000
39   1  0.7935  8.096040 16.088300  3.072160
40   1  0.7818  8.898760 11.646100 16.463300
41   1  0.6944 21.590800  5.405400  9.042600
42   1  0.5532 -0.053206  6.182910 23.555500
43   1  0.7439 20.545800 14.159100 12.324900
44   1  0.4849 -1.096700 15.446300 24.840400
45   1  0.7228  9.770180  6.017330 12.956500
46   1  0.7274  8.685730  8.229540 25.714200
47   1  0.6740 10.376900 12.963500 12.961800
48   1  0.6417  6.233280 13.072900 25.257400
49   1  0.7684  1.098090 13.229400  4.192900
50   1  0.5577  7.176760  3.576170 21.410800
51   1  0.6077  4.328390  6.161980  3.744520
52   1  0.7639  1.404520  9.255970 16.507500
53   1  0.6699 17.919600 13.193800  7.836540
54   1  0.7828 13.093500  4.283600 20.250500
55   1  0.8934 19.788400  9.032170  7.726640
56   1  0.7512 -2.293670  8.467340 19.394400
57   1  0.7444  2.875860 17.399300  7.863340
58   1  0.5574  8.304680  3.246010 24.796300
59   1  0.7138  1.284410  7.503130 12.953000
60   1  0.6176  2.109330 14.183400 24.921700
61   1  0.6857 16.172300 17.577600  9.468430
62   1  0.7698 18.056500 17.819900 22.379500
63   1  0.7861 13.699300 12.379300  8.903920
64   1  0.5451 16.046500  9.086080 22.561000
65   1  0.4785  1.159200  6.952930 26.765300
66   1  0.7115 -1.306340  4.797610 14.521600
67   1  0.7435  5.203090  2.331910  1.418910
68   1  0.7961  1.102860 15.596300 12.004800
69   1  0.5714 10.066900 11.795200 24.335700
70   1  0.5534 10.769600  6.302230 16.984400
71   1  0.6885 13.544600 16.672400 27.335300
72   1  0.5682 11.505900 16.231200 14.555200
73   1  0.7444  5.024090  9.217100 24.521800
74   1  0.7513  8.558370  3.296800 10.487900
75   1  0.6791  7.456700 16.865000 25.746500
76   1  0.7768  4.477610 13.271100  6.100580
77   1  0.7880 21.155600  5.518210  1.786330
78   1  0.6800 19.930900  5.685000 12.386800
79   1  0.8671 19.895100 17.028300 27.252800
80   1  0.7511 20.575800 15.005600 16.438900
81   1  0.5425  1.079870  4.269410  0.034770
82   1  0.7728  3.614110  1.790380 12.366600
83   1  0.5854  2.531320 11.706200 -0.093806
84   1  0.7537  2.707170 14.977700 14.880900
85   1  0.7181 12.395500  9.032670 26.443700
86   1  0.5195 11.550700  3.439160 16.537300
87   1  0.6231 15.743200 10.802000  1.026340
88   1  0.8304 13.988600 10.590100 12.205000
89   1  0.7554 14.909300  3.165550 23.520500
90   1  0.6793  6.797410 17.351800 13.187300
91   1  0.7619  7.320130 12.071100 20.249600
92   1  0.8387  6.090480 11.024500 14.080700
93   1  0.5986 20.588200  4.826880 25.546200
94   1  0.7485 18.279800 18.449500 12.842000
95   1  0.7723 21.080500 12.441100 26.760200
96   1  0.6805 18.968200 10.001500 12.366600
97   1  0.7179 -0.626712  9.187910  6.934750
98   1  0.6757  4.193690  4.133840 24.054100
99   1  0.6404 -1.855050 16.607300  5.324210
100  1  0.6256 -0.921796 16.342700 21.299900
101  1  0.6883  9.072580 10.304500 11.444000
102  1  0.5749 16.345400  6.499220 20.602100
103  1  0.6388 12.485600 17.912200  8.104500
104  1  0.6713 11.360900 17.098300 24.388200
105  1  0.8209  7.699120  6.984400  9.550340
106  1  0.7060  5.373960  7.018360 21.785000
107  1  0.7312  6.762680 15.913200  7.466970
108  1  0.7727  3.994440 17.487000 18.498900
109  1  0.7038 16.266200  8.678980  9.725970
110  1  0.5528 20.777200  9.013710 23.231700
111  1  0.7081 21.688800  1.437560  9.619600
112  1  0.7622 15.228800  1.438740 15.305900
113  1  0.8791  0.468821  2.885730 10.690600
114  1  0.6957 -0.353211 13.279600  0.741965
115  1  0.7672  4.030670  9.450980 10.413500
116  1  0.6936  2.297110  8.903350 21.645100
117  1  0.7166  8.806650  1.788760  6.776900
118  1  0.7393 14.236200 16.574500 19.858500
119  1  0.6021 14.772000 10.011100  6.414090
120  1  0.5752 13.233600 13.310500 24.833500
121  1  0.7621  5.282590  4.640880  7.211370
122  1  0.6394  9.563940  5.797020 22.146800
123  1  0.5653  5.805120  8.723940  5.999110
124  1  0.6209 11.836100 13.247800 18.853400
125  1  0.7404 20.388000  3.610710  5.533700
126  1  0.4643 20.612400  5.690510 22.217300
127  1  0.6685 21.595200 12.556200  7.293630
128  1  0.8689 17.552800 13.731300 23.734400
129  2 -0.4986  1.282850  4.451990 13.258400
130  2 -0.6507  6.375920  5.589970 19.879300
131  2 -0.5801  4.691510 15.366700  8.931980
132  2 -0.7532  4.969090 15.626500 25.731700
133  2 -0.2632 16.816500  4.759300 11.756800
134  2 -0.4065 21.474600  9.171760 26.168500
135  2 -0.6064 19.899500 11.531600  9.881540
136  2 -0.4425 17.460800 16.256100 26.133600
137  2 -0.5121 18.813700  2.625410 10.396100
138  2 -0.5563  4.270370  2.535770 21.672400
139  2 -0.4323  1.821940 13.449700  9.939980
140  2 -0.8244  0.063352 12.386700 25.666600
141  2 -0.3659 13.423900  5.885430 10.687800
142  2 -0.6178 13.575300  9.879270 22.521900
143  2 -0.6047 14.116900 15.355500 10.255400
144  2 -0.5702 14.085500 16.603500 24.339200
145  2 -0.4300 16.617300  7.866980  7.084450
146  2 -0.5147  1.589110  7.764210 19.003400
147  2  0.0185 14.742100  2.391960  1.898390
148  2 -0.5059  0.402754 17.971300 12.919500
149  2 -0.0790  9.419690 11.172600  6.573990
150  2 -0.5512 13.953900 15.126300 15.359300
151  2 -0.1648  8.906030 11.587200  1.078370
152  2 -0.7210  8.851740 10.596400 18.770000
153  2 -0.5302  3.888290  9.145810  0.914018
154  2 -0.3574 -1.887760 10.523000 16.564800
155  2 -0.3852 21.475500 10.396300  5.556730
156  2 -0.6498  5.001470  9.248950 19.732600
157  2 -0.5539  4.591290 11.218800  8.396920
158  2 -0.4727 12.269200  8.629630 16.103300
159  2  0.0159 14.570900  4.653070  3.349170
160  2 -0.3628  5.814250  2.871370 14.218400
161  2 -0.6879  3.319860  4.521280  5.396410
162  2 -0.6884  5.332500  1.864650 25.594000
163  2 -0.6221  6.502880  9.245120 12.048000
164  2 -0.4937  8.085550  8.320650 22.113900
165  2 -0.5833 20.852800 16.844300 11.912100
166  2 -0.4480 19.118000  1.976240 25.104800
167  2 -0.5877 -2.511950  9.528860  8.714100
168  2 -0.2711 18.353800  9.759670  2.273740
169  2 -0.6473 -1.825430  2.955380 11.548900
170  2 -0.6517  4.150390 17.060300  2.173220
171  2 -0.7413  1.506210  8.797670 10.139300
172  2 -0.8147  3.341360  7.140830 23.547200
173  2 -0.4351 12.703700  3.299030 13.282900
174  2 -0.5327 12.815400  2.233980 21.964800
175  2 -0.7396 15.084300 12.799300  6.541460
176  2 -0.4802 12.477300 11.638800 27.533400
177  2 -0.5108  0.734381  7.001970  3.011180
178  2 -0.5122 -1.722270  3.930950 23.547600
179  2 -0.1861  8.919930 10.085300  4.637900
180  2 -0.4046 17.450800 11.481600 21.359100
181  2 -0.3447 11.367500  1.421620  5.224420
182  2 -0.7091 10.065400  3.740180 19.440600
183  2 -0.4731 19.540700  6.625810 27.076100
184  2 -0.0089 19.229800 11.565900 17.379300
185  2 -0.3526 13.252100 12.222300  3.564700
186  2 -0.5371  4.560260  9.540600 15.516500
187  2 -0.1926  8.459590  4.664440  0.213534
188  2 -0.6494  6.953440  1.377190 18.849300
189  2 -0.1561 18.453500  2.865150  1.848210
190  2 -0.3543 14.040600 10.668900 18.274400
191  2 -0.0820 17.489300  1.820030  4.650920
192  2 -0.5194  8.983480 14.235200 18.316700
193  2 -0.3844  6.859670  5.069080  4.659340
194  2 -0.3349 21.524900  4.574270 18.895600
195  2 -0.6505  0.663713 17.378800  9.615070
196  2 -0.5908 16.109700 14.689700 22.021900
197  2 -0.3135 11.949700  3.147680 25.934800
198  2 -0.6220 15.815300  3.810680 20.360700
199  2 -0.1098 10.827700  1.873090  1.314570
200  2 -0.5092  8.357460 14.256400 23.076300
201  2 -0.4037 -2.824850  6.931080  6.682320
202  2 -0.2375  6.812990  6.362840 16.109800
203  2 -0.6232  6.271300 15.094500  4.597500
204  2 -0.4752  5.244270 13.663700 15.902600
205  2 -0.5862 18.745400  7.477380  9.988670
206  2 -0.7952 -0.790245  8.679560 22.185700
207  2 -0.0590 13.932300  1.476990  3.760990
208  2 -0.0322 21.085400 12.184100 20.844500
209  2 -0.6876 -1.771150  6.906730 12.417200
210  2 -0.4056  0.004590  9.660520  0.555365
211  2 -0.6495 -2.038640 15.879200 14.720700
212  2 -0.6685 -2.102700 16.757700  0.568522
213  2 -0.4785  7.420340  5.109120 12.384700
214  2 -0.4954  8.056170 14.657000  0.434042
215  2 -0.2084 17.549500 15.016800 17.314100
216  2 -0.4835 11.301000 14.964300 26.808700
217  2 -0.1878  0.165981  4.837560 17.364400
218  2 -0.5239  1.458240  2.641060  2.457370
219  2 -0.7114  0.203434  9.731600 13.991500
220  2 -0.4524 -2.137200 11.629700  1.861150
221  2 -0.6369  9.328690  2.033950 14.528800
222  2 -0.4399 12.603300  5.684780 23.524600
223  2 -0.5176 11.515000 12.388400 16.056100
224  2  0.0563 10.230500 12.421800  2.182730
225  2 -0.6224 -0.230328 15.608800  3.393940
226  2 -0.2602 19.438800 14.876100 21.219600
227  2 -0.3295 -0.153323  3.243530  6.575520
228  2 -0.6823 16.028700 12.636300 25.815000
229  2 -0.2728 16.151400  3.632110 26.236600
230  2 -0.4936  9.552930 15.922100 11.556200
231  2 -0.0688 16.101400  4.587010  5.360850
232  2 -0.6499 12.696000 12.645300 11.399600
233  2 -0.4389  7.944590  9.242890  8.304040
234  2 -0.6799  8.126900 13.307500 14.133600
235  2 -0.4632  4.188830  5.452190  0.371496
236  2 -0.5424  0.099935  5.074480  9.114520
237  2 -0.3918 14.955400  8.107750  0.303345
238  2 -0.0154 18.169200 14.454900 19.222800
239  2 -0.5822 -2.233410  3.982920  3.718720
240  2 -0.4315 19.115800  7.668760 14.572900
241  2 -0.7747  4.605970  7.142020  8.332890
242  2 -0.6129  4.693870 11.462200 23.240800
243  2 -0.5535  2.048820 15.432900  6.051300
244  2 -0.5495  2.022950 16.400300 23.226800
245  2 -0.6921 13.625600  9.375610  9.539090
246  2 -0.7142 17.716700  4.602850 23.061700
247  2 -0.4589 17.631900 14.928000 11.269400
248  2 -0.3972 17.340900 17.819400 20.064000
249  2 -0.5883  3.069300  3.277250  9.483470
250  2 -0.5936  6.547670  6.425530 24.804900
251  2 -0.4812  4.328320 12.350400 12.559600
252  2 -0.3408  5.394840 13.904400 20.226000
253  2 -0.5377 15.324200  1.799670  7.387370
254  2 -0.3375 21.238000  1.642700 21.206600
255  2 -0.5892 16.182500 11.663600 10.922800
256  2 -0.5718 11.792200 15.684600 20.947800
257  2 -0.4079 10.117500  6.942470  6.215530
258  2 -0.4712  9.109210  7.274570 19.008300
259  2 -0.5784  6.933580 10.336300 26.201400
260  2 -0.3030  1.403360 11.287000 20.093600
261  2 -0.3846 16.347800 16.461300  2.254500
262  2 -0.5238 19.905400  4.044320 15.232800
263  2 -0.6483 19.123300 14.491000  5.155630
264  2 -0.4771 20.705900 11.905200 14.357200
265  2 -0.6533  6.063240  1.130180  5.588980
266  2 -0.3478  3.507240  3.254780 17.783000
267  2 -0.6424 20.730600 14.791700 25.005000
268  2 -0.5543 17.859200 18.250700 15.466900
269  2 -0.5919 11.159100  9.058140 24.145600
270  2 -0.3574 16.041400  5.125560 14.867800
271  2 -0.4275 14.938200  8.130060  4.227800
272  2  0.0157 17.591500 10.357300 16.815900
273  2 -0.5734 20.522600 17.717300  6.887000
274  2 -0.4731  1.412240  2.216610 25.039200
275  2 -0.5699  1.894460 11.607400  6.461230
276  2 -0.1091 -1.629190 11.616100 20.325600
277  2 -0.4893 10.222600  7.334360 10.513300
278  2 -0.5996 14.055200  2.116880 17.846600
279  2 -0.4375 11.432500  9.073910 13.055600
280  2 -0.5553  8.071720  9.345680 15.215500
281  2 -0.1315 21.292300  7.579980  3.539950
282  2 -0.3389  1.242580  4.773260 21.521600
283  2 -0.6386 -0.954297 13.336800 12.163900
284  2 -0.3336 20.596200 18.295200 17.536200
285  2 -0.1036 10.652200 14.952400  5.715720
286  2 -0.2294 11.553800  6.513190  0.939066
287  2 -0.3946  8.676350 12.877000  9.313790
288  2 -0.6759  8.912870  1.342680 22.632700
289  2 -0.5328  9.258770 16.795900  8.306720
290  2 -0.5645  2.314450 17.794300 15.989700
291  2 -0.6174  8.043070  4.545380  8.098400
292  2 -0.4624  2.980060 15.118800 18.097100
293  2 -0.3600 19.013100  5.149350  7.412190
294  2 -0.4833 -0.951093 14.675000 18.312800
295  2 -0.5253 18.434300 10.897600  6.070560
296  2 -0.5684 19.634600  8.390130 19.632800
297  2 -0.7906 -1.207280 13.998800  6.044470
298  2 -0.3062  0.187057  1.504780 20.374400
299  2  0.0006 18.250700  6.835500  4.088870
300  2 -0.5190 -1.962330  7.233790 16.308600
301  2 -0.6052 11.845800  3.028410  9.859840
302  2 -0.5959 11.243600 17.641300 17.383000
303  2 -0.1246 11.506300 15.561300  3.884610
304  2 -0.6510 13.308400  6.418170 18.877400
305  2 -0.5271  6.190590  1.829550 10.500300
306  2 -0.6428  3.915070 12.891000  3.350190
307  2 -0.5646  2.000760 12.340100 15.136600
308  2 -0.6752  1.956120 14.638800  0.387371
309  2 -0.4962 16.836800  6.039520 17.895700
310  2 -0.4291 18.112800  9.918620 24.986500
311  2 -0.2540 17.589400 13.096100 14.264200
312  2 -0.3443 21.037700 11.828000 23.765400
313  2 -0.2466  2.923630  6.856160 15.844500
314  2 -0.5954 -2.728080  2.950770  0.102390
315  2 -0.5838  3.785590 16.096800 12.448000
316  2 -0.5002  7.785380 18.200800  0.742846
317  2 -0.2633 16.165600  9.583770 14.132600
318  2  0.0351 16.927800  6.276880  2.161250
319  2 -0.6477 15.188500 17.883900 12.608600
320  2 -0.7041 19.432600 14.656000  1.131340

