Generated by pymatgen.io.lammps.data.LammpsData

48  atoms

 2  atom types

0.000000 12.100325  xlo xhi
0.000000 12.100326  ylo yhi
0.000000 6.997800  zlo zhi

Masses

1  106.42
2   78.96

Atoms

1   1  9.142180  4.175550  3.585490
2   1  9.093950  8.567950  3.356870
3   1  8.944010 10.920300  4.903120
4   1  4.278470  9.650520  5.545220
5   1  2.093410  4.764920  6.514550
6   1 10.332100 11.130500  0.003801
7   1  4.268970  4.235860  4.870590
8   1  0.970644 -0.158328  4.611240
9   1 10.816800  3.381420  1.312340
10  1 11.066700 11.175500  2.611740
11  1  4.827660  1.924220  2.679230
12  1  6.818100  8.103420  6.148810
13  1 10.677000  1.421760  6.786610
14  1 11.080700  9.070040  4.823340
15  1 10.675400  5.137540  5.522480
16  1  8.020340  6.030060  1.712300
17  1  6.388250 11.727500  4.933680
18  1  4.561200  4.941740  7.256710
19  1  0.985608  2.581280  3.052160
20  1  4.014360  6.488980  3.929860
21  1  8.981500  8.879170 -0.217515
22  1  7.405500 10.249800  2.147850
23  1 11.983700  5.105290  2.795480
24  1  3.322840 11.159500  0.870210
25  2  3.900860  7.774980  0.978156
26  2  9.360110  0.736696  3.434640
27  2  0.809083  6.129000  5.064350
28  2  5.698820  5.887170  5.444860
29  2  2.875950  8.796720  3.068350
30  2  3.935400  0.800089  6.404520
31  2  4.245830 11.547600  3.192270
32  2  7.298620  1.292560  1.677870
33  2  1.396510  0.547585  1.745730
34  2  6.252210  4.589790  3.125040
35  2  0.262690  8.909380  0.095143
36  2  5.673640 10.373700  0.070572
37  2  1.476120  9.821130  5.015220
38  2  8.288250  1.537500  6.684030
39  2  6.757670  1.742720  4.133740
40  2  6.299560  7.140690  1.005690
41  2  8.811410  6.920220  4.899750
42  2 10.817800  2.937460  4.305830
43  2  1.939460  6.092650  2.378230
44  2  2.640170  3.504420  1.556480
45  2  5.941190  9.138660  3.421250
46  2 10.599700  5.676850  0.762133
47  2 11.010000  9.052530  1.660460
48  2  2.007290  2.524230  5.449500

