Generated by pymatgen.io.lammps.data.LammpsData

360  atoms

  2  atom types

0.000000 16.677463  xlo xhi
0.000000 21.699897  ylo yhi
0.000000 28.493178  zlo zhi

Masses

1  208.9804
2   78.9600

Atoms

1    1  0.7882 14.645100 11.975700 21.839300
2    1  0.8273  2.992120 19.829400 24.527500
3    1  0.7415 15.149800  8.802100 21.039100
4    1  0.8661  5.164890 16.026100 15.090600
5    1  0.7181  6.414720  9.295880 25.483600
6    1  0.7853  6.701700 16.712100 21.388800
7    1  0.8733 10.714400  1.486440 21.881300
8    1  0.6536  1.727270  2.390390 24.746700
9    1  0.6801  6.670320  3.340850 20.928000
10   1  0.8201  8.462570  9.170390 18.004500
11   1  0.8753  8.377670 14.231600 24.576200
12   1  0.7105 15.613500 18.858400 25.335000
13   1  0.4955  5.017620 21.664400 21.998300
14   1  0.4958  2.617280  1.386310 21.683500
15   1  0.8856 10.771200  3.611550 17.794200
16   1  0.7429 12.194300  7.062290 18.993600
17   1  0.8928 12.451400 14.615100 23.334000
18   1  0.8526  2.288720 20.718000  0.271467
19   1  0.6828  5.860190 19.618800 19.840800
20   1  0.7835  9.017660 20.494900 21.465800
21   1  0.7825 13.977400  8.443940 27.211300
22   1  0.8154  9.359110  6.545470 20.725200
23   1  0.6962 12.528000 18.359300 22.437500
24   1  0.6601 15.264000  5.493230  0.590771
25   1  0.7186  0.497439 13.888100 26.402800
26   1  0.7627  7.525320 19.585100 25.305800
27   1  0.7278  3.774590 12.574700 24.684200
28   1  0.6938  0.547683  9.545110 24.339900
29   1  0.6115 15.644500 16.574400 22.586300
30   1  0.6799  6.074310 19.111400  0.306743
31   1  0.7434 15.343200 20.894000 22.169500
32   1  0.7640  5.311130  7.309960 22.769800
33   1  0.7410  6.937410 11.927600 20.723200
34   1  0.8611  6.562580 12.661000  1.166340
35   1  0.7849  9.438140 11.370200 27.083000
36   1  0.9167 10.575800  0.657179 25.301000
37   1  0.9136  4.849120  2.253910 27.056700
38   1  0.9028  7.537630  4.302640 24.352900
39   1  0.7552 11.196600  7.612330 24.982600
40   1  0.9119 12.825100  4.772250 22.799600
41   1  0.8167 13.770500 11.965200 26.514500
42   1  0.6847 11.329200 14.054400  0.835694
43   1  0.7613 10.255300 17.061200 25.412500
44   1  0.7291 14.736900  2.115720 23.884200
45   1  0.7225 15.567800  0.707763 26.743400
46   1  0.7430 10.273300  9.957480 22.828500
47   1  0.7848  3.721540  1.610180  3.746500
48   1  0.8363 16.531800  5.193030 24.055600
49   1  0.8230  0.593274 16.088000  6.240310
50   1  0.7689  7.943170  1.178140  3.538040
51   1  0.7842  0.706868 11.554900  0.929786
52   1  0.8410  2.805840 17.108200 27.139100
53   1  0.7446  2.674780 18.805400  4.480360
54   1  0.7177  9.901290 14.845400  4.374280
55   1  0.7263  2.020500  5.358640  0.484825
56   1  0.7796  3.416910  3.982870  6.726060
57   1  0.7210  3.441430  7.586850 26.522500
58   1  0.8479  2.712400 11.276400  5.280690
59   1  0.7184 14.748900 10.514800  4.840860
60   1  0.8125 16.162500 19.782300  5.476280
61   1  0.8077 12.099000 17.847400  4.750810
62   1  0.6015  5.847020  4.900030  3.735600
63   1  0.7737 12.554800  4.254540 27.254300
64   1  0.6988 14.741300 13.745600  2.930950
65   1  0.6135 15.190500  1.955320  1.878540
66   1  0.8225  0.052337 18.766500  9.524040
67   1  0.7400 10.561500  1.640770  0.952181
68   1  0.6514  6.897490  7.620060  4.895470
69   1  0.8012  4.886850  8.984710  2.209250
70   1  0.8707  3.604110 14.424700  2.826820
71   1  0.8372  7.463080  0.731999  7.317400
72   1  0.8516 12.501100  6.779740  3.097250
73   1  0.7287 14.795900 16.396200 11.582800
74   1  0.6013  8.342790 21.033800 12.023100
75   1  0.8444 15.603100  7.562190  7.950250
76   1  0.7968 14.644900 10.636600 13.480300
77   1  0.9115  5.516340 17.003300  7.448030
78   1  0.8141 13.540900 16.132700  8.211410
79   1  0.6613  6.172090 18.474000  3.002370
80   1  0.6646  0.410408  8.565080  4.191630
81   1  0.8473  6.966190 11.013600  7.617520
82   1  0.8686  2.358820 14.700700  9.407200
83   1  0.8106  8.983880  0.548762 15.230000
84   1  0.7495 12.467500  0.770312  4.664410
85   1  0.6989  0.353069  7.949740 13.530000
86   1  0.7117  8.173490  3.859770  6.366160
87   1  0.8498 11.888500  7.559580  6.368920
88   1  0.8169  9.930430 13.337700 10.363600
89   1  0.7857 11.381300 11.752500  6.160980
90   1  0.8320 14.811300  0.864472  8.072850
91   1  0.8209 10.787400 19.701800  7.758480
92   1  0.7763  9.879990  5.027680  2.275880
93   1  0.9639  9.753640  9.385800  2.585370
94   1  0.8469 14.307600 12.552300  8.567580
95   1  0.8054  3.323660 21.217600  7.229080
96   1  0.9033  1.897280 10.826000  9.895100
97   1  0.7552 12.609400 21.666200 11.716400
98   1  0.7571 16.291900 20.924300 12.337900
99   1  0.7193 15.117500  6.597200 15.876900
100  1  0.8644 12.008200  8.977290 10.206200
101  1  0.8663  3.438280 11.828300 17.712500
102  1  0.6705  4.995130  1.262980 11.310200
103  1  0.7712  1.204830  2.496390 14.838200
104  1  0.8314 16.163800  4.190900  5.521230
105  1  0.9465 15.916000  3.892540 11.640800
106  1  0.6697  3.755960  8.706590 14.576400
107  1  0.7257  6.458050 16.905900 17.756000
108  1  0.8371 12.484600 13.837400 12.783300
109  1  0.7174  1.876310  1.751250  9.660830
110  1  0.7590  4.163390  8.167350  7.157150
111  1  0.6995  5.083650 10.050300 10.820000
112  1  0.8366  6.230490 14.593500 10.892400
113  1  0.7934  9.197430 17.113300 11.510900
114  1  0.7570 15.167200 18.133600 16.966600
115  1  0.9169 13.962900  1.148980 15.784000
116  1  0.8973  4.653130  5.495700  9.953450
117  1  0.8727 10.628800  2.459090 10.148100
118  1  0.7514  8.421780  8.557790 12.190500
119  1  0.7639  9.094710  5.605220 14.715500
120  1  0.8768  8.201730  6.182310  9.068740
121  1  0.6920 16.088400 15.363600 19.524900
122  1  0.8598  2.282330 13.511000 12.816200
123  1  0.8734 13.193700 11.567800 18.164800
124  1  0.7176 15.341800 14.513200 15.696400
125  1  0.6886  3.676890 12.717400 21.248300
126  1  0.7933  6.260970 19.875400 15.130800
127  1  0.7490 10.985300 21.665700 17.765400
128  1  0.7774  5.204980  3.517940 16.053200
129  1  0.7814  2.282480  9.142130 21.081400
130  1  0.8019  1.740590 18.538000 20.615100
131  1  0.7927  3.652900 16.323000 23.253900
132  1  0.7555  9.554910 18.379700 16.253600
133  1  0.7419  1.682570  0.874237 18.656900
134  1  0.7805  3.681140  4.323480 13.010800
135  1  0.6771 12.311000  7.588410 14.538600
136  1  0.8099  6.287510 11.770600 13.601700
137  1  0.8776  9.188800 14.599300 15.648000
138  1  0.8820 10.995000 11.096700 15.515500
139  1  0.5090  5.537690  0.703725 18.501200
140  1  0.8795  5.166760  6.067240 17.848500
141  1  0.9401 14.198800  3.450020 19.478500
142  1  0.7974  9.924170 12.006700 19.492900
143  1  0.7506 11.302900 18.020900 19.120600
144  1  0.7211 12.114100  4.581990 13.633900
145  2 -0.5261  7.410890 16.681400 25.569100
146  2 -0.6211 15.232600 17.868400  7.094140
147  2 -0.6563 12.177100  2.909590 24.303100
148  2 -0.4802 14.111400  8.473140 24.372200
149  2 -0.7178  0.903006 21.095100 21.052300
150  2 -0.5080  4.234600 15.119100 25.418100
151  2 -0.5117  1.776490  0.005803  2.854470
152  2 -0.5939  2.751780  4.990480 26.640600
153  2 -0.4131  1.316150 15.313100  0.467811
154  2 -0.8290  1.594620 17.523900 24.363900
155  2 -0.4244  6.685840 12.778400 26.554700
156  2 -0.3367 14.513000 19.330300  3.210850
157  2 -0.4272  6.471040  3.340830 12.953700
158  2 -0.3858  9.249850  8.185230 26.872800
159  2 -0.6422 13.697500  5.614720 25.268000
160  2 -0.3003  7.551620 12.089000  3.669000
161  2 -0.7475 13.526700 16.713800 24.358800
162  2 -0.4821 12.124700 10.672700  0.004880
163  2 -0.3463  9.725120 19.167100 27.633800
164  2 -0.4436  4.713240  5.905810  0.986592
165  2 -0.6261 10.750700 12.900500 17.539400
166  2 -0.5281  2.672360 12.492100 26.898600
167  2 -0.6476 12.665900  1.381460 27.585800
168  2 -0.7854 12.912300  4.484790  1.524410
169  2 -0.3921 10.118800 17.431400  2.661520
170  2 -0.8136 16.185000  3.362860 26.107500
171  2 -0.7358  0.289190 10.947700 21.590400
172  2 -0.1369 16.437200 17.213300  2.080520
173  2 -0.5341  5.635200 21.673200  1.661800
174  2 -0.5590 10.635200 19.883700 24.182700
175  2 -0.5433  2.844730  1.741110 28.479200
176  2 -0.6211  1.593630 14.132400 21.679600
177  2 -0.8303  4.057920  9.408880 23.779900
178  2 -0.4976  4.513860  9.930210 27.834000
179  2 -0.6970  4.216600 19.167700 26.854400
180  2 -0.4306 16.179800 20.329700 28.125100
181  2 -0.2112  6.779040  5.683910 27.014000
182  2 -0.4550 14.079500  8.160260  1.429820
183  2 -0.6116  7.949690 11.190900 23.643400
184  2 -0.4853 13.797600 14.607800 27.937900
185  2 -0.4316  0.754641 14.675000  3.635370
186  2 -0.6807  0.063737  4.612110  2.825870
187  2 -0.3789  7.270910  0.250529 27.356400
188  2 -0.7064  4.038980 19.050600 22.176200
189  2 -0.4660  7.804010  2.916540  1.197610
190  2 -0.5880  7.969690  6.970670 23.941700
191  2 -0.6673 11.654200  4.278580 20.300000
192  2 -0.4707  5.125270 15.598300  0.911973
193  2 -0.4395 13.135600 15.862900 17.147500
194  2 -0.5116  4.304740  5.102290 23.900900
195  2 -0.7388  8.202340  9.511200 20.610800
196  2 -0.5194  0.530981  7.438930 22.136800
197  2 -0.5693  2.743940 18.234200  1.386170
198  2 -0.6110 10.247400 12.644400 13.589400
199  2 -0.7618  0.840930 21.121600 25.276900
200  2 -0.1584  2.803840  5.715400 21.320800
201  2 -0.6654  2.939230  4.362350 15.942500
202  2 -0.5254  6.223810  6.156190 20.432400
203  2 -0.6164  5.838270 14.172500 22.642900
204  2 -0.4547  4.078290 16.415000 19.966800
205  2 -0.5278  6.454570  1.943920 23.752000
206  2 -0.5386  9.289880  4.033370 22.437100
207  2 -0.5803  8.805360  0.367111 23.594200
208  2 -0.2534  2.183840 15.627200 15.448100
209  2 -0.4999 10.284400 13.434100 22.774600
210  2 -0.6015 10.788300 13.609400 26.120500
211  2 -0.5828 13.514300 21.057200 24.620800
212  2 -0.6217  3.724130  0.715964 25.384200
213  2 -0.7170 11.820800  7.267940 22.276100
214  2 -0.3400  8.697440 14.374000 20.171400
215  2 -0.3276  9.008930  3.023030 25.881000
216  2 -0.0811  1.085650  5.320270 18.690300
217  2 -0.6547 14.805400 13.447500 12.540000
218  2 -0.5767 11.852900 13.774200  7.933630
219  2 -0.7210  4.197630  7.017400  4.287500
220  2 -0.2377 16.616100  6.573280 10.524400
221  2 -0.3973  3.513060 15.808300 12.375100
222  2 -0.4226 10.619500 16.952700  7.166930
223  2 -0.4230  1.588420 13.699800  7.052410
224  2 -0.5987  9.024410 21.582000  9.179930
225  2 -0.7904  5.624190  5.509420  7.768150
226  2 -0.7201  4.017820 12.572400 11.078000
227  2 -0.5281  3.314550  6.755100 11.886200
228  2 -0.5023 10.487000 20.269300 14.511100
229  2 -0.7031  0.342073 21.010000  7.888170
230  2 -0.4407  5.188210 14.397200  8.507650
231  2 -0.3863 13.129500  6.725830  8.872610
232  2 -0.2238  7.757580 13.711500  6.772450
233  2 -0.3028  7.488270 17.014300  5.572490
234  2 -0.3943 15.109800  9.611200 10.220200
235  2 -0.5383 11.474400 15.848000 10.899800
236  2 -0.5490  9.276830  2.089320 12.680400
237  2 -0.3640 13.343200  3.209400  5.904940
238  2 -0.3780  0.771315 12.131200 15.177300
239  2 -0.6018  1.851340  2.003200  5.827180
240  2 -0.3591  7.397790 20.687400  5.148520
241  2 -0.6535  2.013830 18.393300  6.951150
242  2 -0.4402  2.651880  8.161360  9.689720
243  2 -0.6321  9.715290  6.857670  4.565770
244  2 -0.4416  9.981890 10.105500  8.885220
245  2 -0.5140  0.266288 10.301000  7.197890
246  2 -0.5204  8.087420 10.327300  0.742827
247  2 -0.5828 11.853100  0.998122  8.604680
248  2 -0.5714  1.931840  6.894570  6.569630
249  2 -0.6660  7.236110  8.779700  9.353690
250  2 -0.3786  8.578170 15.192200  9.080680
251  2 -0.4649  9.125560  9.839300  5.671520
252  2 -0.3161  9.761500 19.589300  5.167900
253  2 -0.4313  5.468230 20.284600  8.152350
254  2 -0.5544  4.486250 16.497300  4.745740
255  2 -0.6163  0.950521  4.729100 13.237000
256  2 -0.4650 10.228200  5.012560  7.447320
257  2 -0.6044  4.044550 10.932900  8.199130
258  2 -0.6326 15.980900 15.716700  9.121930
259  2 -0.3207 13.146900 20.755900 14.555200
260  2 -0.6020  4.773670  2.304880  8.532490
261  2 -0.5899 11.835700  9.121480  4.111840
262  2 -0.6784 13.435800 10.078700  7.223880
263  2 -0.3463 15.908600  3.884770  8.440710
264  2 -0.6436 14.274900  6.475680  5.387850
265  2 -0.4610 15.428000 13.210400  5.893230
266  2 -0.5455  0.632776 13.005500 10.588300
267  2 -0.5616  0.049762  7.455320 26.023700
268  2 -0.5701  5.469600 10.061500  4.887600
269  2 -0.5410  3.745540 11.670000  2.315110
270  2 -0.4836  8.561180 14.523900  0.311283
271  2 -0.0460 13.900700 17.924600  0.022714
272  2 -0.8170  6.058670  2.442000  5.276930
273  2 -0.4703  7.565680  7.296100  2.189570
274  2 -0.5321  0.450140  8.537520  1.712520
275  2 -0.5073 13.929000 18.897800 10.362100
276  2 -0.6271 13.024300 15.372800  4.915940
277  2 -0.4791 10.556700 21.309000  2.936490
278  2 -0.5865  4.447270 20.564100  4.938680
279  2 -0.3915 10.131000  4.799460 28.001400
280  2 -0.5525 10.328600 12.271600  3.150500
281  2 -0.6045  1.760790 10.222700 12.738800
282  2 -0.3210  4.252650 13.590400  5.325380
283  2 -0.0355 12.784300 19.513900  0.320229
284  2 -0.5035 15.616400  0.820449  4.852920
285  2 -0.3733 11.167500  7.548390  0.887894
286  2 -0.6092  0.709675 11.503800  3.688550
287  2 -0.7004 10.223600  2.731710  4.144780
288  2 -0.4004 13.729000 10.825200  2.393440
289  2 -0.6666 16.203400 11.132700 26.979400
290  2 -0.4502 10.727200 16.159400 13.985300
291  2 -0.5159  4.068000 12.884100 14.836700
292  2 -0.3257  2.110910 14.090600 18.271100
293  2 -0.4629  9.178300 16.107600 17.952100
294  2 -0.4598  3.542550  3.996840 19.935200
295  2 -0.7444 15.316800 18.529300 20.699000
296  2 -0.4740 15.067200  9.657790 16.081700
297  2 -0.3971  5.793190  8.746330 17.271800
298  2 -0.7199 12.035800  8.933110 16.772500
299  2 -0.2638  1.649960 17.576700 17.717800
300  2 -0.6750 14.860300 13.300900 24.139300
301  2 -0.6396  3.642540 20.169800 18.995300
302  2 -0.4845  7.047260  3.995930 18.147200
303  2 -0.5973 12.034400 10.852700 24.471500
304  2 -0.7159  6.809730 19.374000 22.346800
305  2 -0.3919  7.513460 11.363600 16.109800
306  2 -0.3318 15.440400 21.302000 17.830600
307  2 -0.5697 13.548600  1.241510 21.736500
308  2 -0.4374  0.301482  2.377960 20.492300
309  2 -0.6171 15.155300  4.317340 22.040400
310  2 -0.5957  4.251150 10.064100 19.525700
311  2 -0.7217 11.360600 20.482300 20.616000
312  2 -0.4486 12.506500 18.502200 16.748200
313  2 -0.0096  1.520140 17.344400 14.345300
314  2 -0.2407  2.123250 21.292700 15.876100
315  2 -0.6178 12.998700  1.491190 18.139300
316  2 -0.5179  6.493360  9.207360 14.262500
317  2 -0.4090  7.776970 18.154300  9.606680
318  2 -0.4580  5.396500 13.443700 19.104500
319  2 -0.3618 15.894800 19.539400 14.590200
320  2 -0.3413  4.299010 18.456700 15.918600
321  2 -0.4098  6.920680 14.155300 17.066900
322  2 -0.5075  6.014930  5.948120 15.223600
323  2 -0.7151  6.889360 14.560100 13.175000
324  2 -0.1465 13.087200 18.066300 13.911500
325  2 -0.4059 11.301600 19.605900 11.761000
326  2 -0.7304  2.503890  1.776160 12.618900
327  2 -0.5737  9.285870  6.378670 18.170700
328  2 -0.6295 13.527100 14.841400 20.970000
329  2 -0.7565 12.019000 10.209500 20.005500
330  2 -0.5949 13.388700 12.513600 15.683300
331  2 -0.7538  8.214810 18.580500 19.298300
332  2 -0.5692 11.648400  1.897070 15.267500
333  2 -0.5253 10.207300  6.830690 10.738300
334  2 -0.7608 12.487100  5.146930 16.195100
335  2 -0.0709  3.541520 19.608900 13.266200
336  2 -0.6091  8.906390  2.132560 19.919500
337  2 -0.8481  7.753780 21.143000 17.039800
338  2 -0.8126  7.306240 17.725800 14.694000
339  2 -0.6260 14.462700  6.292790 12.995900
340  2 -0.5169 15.432400 12.871500 18.828000
341  2 -0.2437  4.212150 19.654400 11.194700
342  2 -0.5199  8.914670  2.993200 15.967600
343  2 -0.5676  5.058350  0.642800 15.530700
344  2 -0.4943  2.369690  4.460640  9.512800
345  2 -0.4876 14.802900  6.595000 18.798700
346  2 -0.3638  3.225220 17.336400  9.475670
347  2 -0.5369  9.906470 16.604300 22.650100
348  2 -0.5088  7.821350  3.064820  8.928530
349  2 -0.6246  7.502440 11.664300 10.925600
350  2 -0.5137  7.113860  5.604020 11.217800
351  2 -0.5476  9.342720  8.338080 15.214900
352  2 -0.5349 12.568300 11.952000 10.470700
353  2 -0.4662  0.532563 18.042600 11.859700
354  2 -0.7315 16.082900  1.373400 10.523900
355  2 -0.5704 13.458300 20.063400  6.856810
356  2 -0.4376 12.551200  4.119950 11.084400
357  2 -0.3401  1.451750  8.638460 17.371000
358  2 -0.6692 12.081000  9.794030 12.950500
359  2 -0.4886 15.552700  3.255670 16.679900
360  2 -0.6235 14.439400  2.149710 13.168200

