Generated by pymatgen.io.lammps.data.LammpsData

320  atoms

  2  atom types

0.000000 24.637781  xlo xhi
0.000000 17.058433  ylo yhi
0.000000 27.370788  zlo zhi

Masses

1  208.9804
2   78.9600

Atoms

1    1  0.5866 -0.365879  1.473000  1.152080
2    1  0.7425 -2.206870  1.422060 14.549100
3    1  0.7233 -1.458560  9.048720  0.691206
4    1  0.7236 20.915500  9.854150 14.178000
5    1  0.8275 10.728100 17.798200  0.030294
6    1  0.7229  8.886680  1.419600 13.361400
7    1  0.6855 10.813700  8.932180  0.085136
8    1  0.6713  9.272460  9.447200 13.943600
9    1  0.6886  3.832900  5.375440  8.740660
10   1  0.7589  4.925580  5.037110 23.709800
11   1  0.8054  3.059330 13.835000  9.825750
12   1  0.7618  4.700930 13.871600 24.364000
13   1  0.6914 15.385100  4.732240  9.461230
14   1  0.6707 17.047200  5.623820 23.581100
15   1  0.7608 14.869100 13.848700  9.781950
16   1  0.6950 17.650200 14.015900 23.822400
17   1  0.6575  3.455040  5.646160  5.019430
18   1  0.7088  5.872030  5.144970 16.808800
19   1  0.6823  3.200090 14.585000  5.503180
20   1  0.6602  4.372540 14.058800 19.028800
21   1  0.6754 15.533100  5.514050  5.481360
22   1  0.7110 16.887400  5.021090 19.723100
23   1  0.7267 15.304000 13.332500  5.283350
24   1  0.6148 17.493200 13.864500 19.382700
25   1  0.7116 22.120100 18.241600  9.933420
26   1  0.8035 -1.348160  1.336660 22.936600
27   1  0.6631 21.659600  9.671370 10.201300
28   1  0.7770 -1.386470  9.866120 23.702600
29   1  0.7071  9.602130 18.393600  9.072310
30   1  0.6887 11.126800 17.886800 22.282000
31   1  0.6879  9.332350 10.152000  9.684250
32   1  0.5951 10.998300  9.728340 22.715600
33   1  0.5661 -0.470579  5.141380  0.789465
34   1  0.7956 21.784300  5.254010 14.141600
35   1  0.6788 -1.060040 14.341500  0.914177
36   1  0.7082 21.980500 14.256100 15.155600
37   1  0.7692 10.549700  5.025280  0.300336
38   1  0.6283  9.243310  5.796710 14.265300
39   1  0.7164 11.748600 14.106000 27.032100
40   1  0.7323  9.150290 14.390800 14.351000
41   1  0.6656 21.784600  5.887580  9.779410
42   1  0.6840 -1.036870  5.383710 23.670800
43   1  0.6837 21.647600 14.219700  9.937030
44   1  0.7633 -1.303270 13.807900 23.983800
45   1  0.7900  9.613540  5.378770  9.398170
46   1  0.7443 11.062900  5.044110 22.937600
47   1  0.7542  9.012800 13.721200  9.756610
48   1  0.5922 11.565200 14.063900 23.155100
49   1  0.6232  3.747330 18.313800  4.571000
50   1  0.6070  4.931450 18.058500 18.332100
51   1  0.7596  3.339470  9.824820  5.105620
52   1  0.7522  3.611040  9.566060 18.676700
53   1  0.7351 15.739000 18.131300  5.186330
54   1  0.6893 17.201400 17.927700 19.218100
55   1  0.6953 15.904900  9.564920  5.812100
56   1  0.6759 17.473800  9.751260 18.835100
57   1  0.7930  3.180570 18.189600  9.350730
58   1  0.7696  4.749360 17.994000 23.897100
59   1  0.8047  3.153730  9.772040  9.756090
60   1  0.7049  5.113080  9.822680 23.193800
61   1  0.7664 15.261900 18.144000 10.040100
62   1  0.7714 17.753400 18.072700 23.586100
63   1  0.7833 14.942300  9.375290  9.334700
64   1  0.7237 17.134600  9.721430 23.295400
65   1  0.6513  1.480100  7.396180 25.449400
66   1  0.8197  0.011707  7.378720 11.841500
67   1  0.6914  1.821670 15.893900 25.934300
68   1  0.7922  0.535920 16.390500 12.336200
69   1  0.7199 13.287900  7.640120 24.775600
70   1  0.6387 12.241500  7.401680 11.753600
71   1  0.7629 14.120500 16.378300 25.307800
72   1  0.7600 11.892600 16.244800 12.275700
73   1  0.7425  7.862960  7.115470 25.359000
74   1  0.8048  6.342100  7.242830 11.511400
75   1  0.7577  8.475060 15.977800 24.882100
76   1  0.7987  6.499860 15.855300 11.484000
77   1  0.7407 19.326300  7.503820 26.135400
78   1  0.7957 18.592400  7.249310 12.639300
79   1  0.7183 20.800100 16.491200 25.696400
80   1  0.7220 18.965200 15.656700 12.555100
81   1  0.7131  2.072760  2.923380 26.133800
82   1  0.8806  0.893213  3.475200 12.432200
83   1  0.7009  1.423860 11.425000 25.936400
84   1  0.6879 -0.128102 11.897100 12.206100
85   1  0.8053 14.097500  3.083610 25.877700
86   1  0.6675 12.048200  3.481710 11.522300
87   1  0.6911 13.787600 11.423400 25.403800
88   1  0.7932 12.132600 11.576300 11.407600
89   1  0.7810  7.491840  3.161330 25.233700
90   1  0.7877  5.843280  3.081030 11.613300
91   1  0.7267  7.967400 11.791900 25.433600
92   1  0.7114  6.152830 12.407600 12.288300
93   1  0.6415 20.997100  3.587840 26.259100
94   1  0.6982 19.518800  2.935010 12.174400
95   1  0.7299 20.213000 11.861800 26.633800
96   1  0.8323 18.129200 11.896200 11.733800
97   1  0.8254  0.628206  7.710650  7.448840
98   1  0.7401  1.586420  7.932780 20.924700
99   1  0.7962  0.459226 16.195900  7.707190
100  1  0.7578  1.844900 16.175500 21.758500
101  1  0.7619 12.255100  7.534800  6.909610
102  1  0.7151 14.651000  7.636920 21.436800
103  1  0.7936 12.556600 15.916600  8.032700
104  1  0.7192 14.563600 16.075700 21.551600
105  1  0.7114  6.098250  8.259920  7.806160
106  1  0.7790  7.456370  7.769260 20.917400
107  1  0.6595  5.895230 16.107700  6.761750
108  1  0.7566  8.319590 16.627100 20.393600
109  1  0.7306 18.404800  7.723270  7.793750
110  1  0.8134 20.287100  7.493760 21.197900
111  1  0.7043 18.556000 15.702100  8.092010
112  1  0.7864 20.611700 15.869700 21.718200
113  1  0.7843  0.823604  3.515060  6.640150
114  1  0.7148  1.977720  3.041210 21.446800
115  1  0.8526 -0.290623 11.715700  7.614360
116  1  0.7217  1.768770 11.585400 21.225200
117  1  0.8208 12.393100  2.977150  7.427810
118  1  0.7929 14.217300  3.006000 21.656200
119  1  0.8386 12.290600 11.690400  7.380810
120  1  0.6826 14.652800 12.208600 21.102300
121  1  0.7192  6.531420  2.890740  7.579090
122  1  0.7209  8.024350  3.097000 20.666600
123  1  0.6766  5.981690 11.894800  7.679930
124  1  0.6675  7.852320 12.139600 21.571900
125  1  0.6285 18.025400  2.624030  8.290650
126  1  0.7809 20.426200  3.343760 21.459000
127  1  0.7052 18.131700 11.806000  7.783250
128  1  0.7771 20.303600 11.533900 21.043200
129  2 -0.7077  6.861130  5.582370  9.156670
130  2 -0.6987  8.150910  5.280100 22.690800
131  2 -0.7747  6.256580 14.244700  9.398370
132  2 -0.7718  7.275680 14.139500 23.315000
133  2 -0.6909 18.859200  5.408570 10.220200
134  2 -0.6908 20.294600  5.836060 23.450400
135  2 -0.8089 18.161500 13.577000  9.876080
136  2 -0.7620 20.495300 13.748800 23.941100
137  2 -0.6600  0.328493  5.680460 10.030900
138  2 -0.6909  1.849420  5.678110 22.989400
139  2 -0.7204  0.292185 13.672300  9.906780
140  2 -0.7712  1.928670 13.635200 23.734100
141  2 -0.8402 12.418500  4.964120  9.302600
142  2 -0.8137 14.108500  5.199910 23.424000
143  2 -0.7785 11.894100 13.835300  9.478570
144  2 -0.8256 14.481000 14.053500 23.752000
145  2 -0.1150 12.660600  2.985010  3.182220
146  2 -0.0055 -0.950012  5.555060 18.495100
147  2 -0.1073 15.818400 10.367900  2.448400
148  2 -0.1162 -2.308720 11.133500 17.456200
149  2 -0.0495  7.846930  4.968310  4.074210
150  2  0.0402 14.596000  2.331020 16.158600
151  2 -0.0693  4.344380 10.984300  2.306780
152  2 -0.0175 11.006800 13.607000 17.618300
153  2  0.0412 22.242900  8.985450  4.417770
154  2 -0.2826 21.001600  7.514540 15.953400
155  2 -0.2852 20.561800 15.106800  1.187630
156  2 -0.1909  3.709950  2.863850 14.351000
157  2  0.0159  9.847120 11.213000  3.870640
158  2 -0.1678 16.840300  6.604270 16.651900
159  2 -0.0389 10.068900 16.917200  3.810930
160  2 -0.0122 11.304400 18.274300 17.176900
161  2 -0.7617  6.060460 18.122600  9.767100
162  2 -0.7627  8.398210 18.353700 23.005300
163  2 -0.7532  6.262040  9.721130 10.110300
164  2 -0.8331  7.832050  9.524780 23.178200
165  2 -0.7328 19.043500 17.672400 10.318100
166  2 -0.8153 20.593100 18.159100 23.388300
167  2 -0.6529 18.393000  9.205210 10.151400
168  2 -0.6270 20.305100  9.312000 24.034300
169  2 -0.6717  0.420241  1.585600  9.073950
170  2 -0.7805  1.773920 18.022200 23.792900
171  2 -0.7503  0.343923  9.646700  9.527610
172  2 -0.7703  2.193610  9.758560 23.465600
173  2 -0.8228 12.403700 18.059800  9.862610
174  2 -0.8367 14.033700 18.219800 23.416400
175  2 -0.8259 12.260700  9.669870  9.450500
176  2 -0.8641 13.799500  9.790150 22.956400
177  2 -0.0265  9.218690  3.162900  3.287900
178  2 -0.1143  0.477333  3.507940 18.159400
179  2 -0.1229  4.777600 12.636300  3.021070
180  2 -0.1696 -1.486080 16.507100 17.016300
181  2 -0.1687 16.519900  3.102740  2.834640
182  2 -0.0011 14.914700  4.366200 15.300900
183  2 -0.0570 17.152800 11.966400  2.615920
184  2 -0.1189 10.402900 11.379800 17.596100
185  2 -0.0764  9.262590  8.952660  3.620850
186  2 -0.0088  3.684570  8.952740 14.342100
187  2  0.0204  9.363830 14.757900  3.867340
188  2 -0.1986  3.087590  3.687270 16.176300
189  2 -0.0136 21.296700  7.107690  4.517990
190  2 -0.0977 11.500500  5.253490 16.568700
191  2 -0.2486 15.266400 15.372100  2.675310
192  2  0.0112 12.440900 16.444300 17.010000
193  2 -0.1863  5.079880  4.438800  2.814900
194  2 -0.1579  1.888080  7.325120 17.198800
195  2 -0.4481  0.585839 14.231300  5.543230
196  2 -0.3273  1.136560 13.804600 19.466700
197  2 -0.3717 12.082300  5.914870  4.900790
198  2 -0.3197 14.146300  4.907240 19.173700
199  2 -0.3681 12.499500 13.921600  5.433290
200  2 -0.3830 13.928100 13.973100 19.193000
201  2 -0.5204  0.617827  5.846220  5.179420
202  2 -0.3834  8.329550  5.411280 18.469300
203  2 -0.2835  5.212400 16.556800  2.960040
204  2 -0.4405  7.679940 14.217700 18.976200
205  2 -0.3526 18.982000  4.859010  6.247040
206  2 -0.4289 19.775900  4.622060 19.149100
207  2 -0.2796 18.581900 13.713700  5.101190
208  2 -0.4352 20.814000 13.701900 19.649700
209  2 -0.8343 21.713900  7.661190 12.367200
210  2 -0.8220 -1.389640  7.897030 25.351400
211  2 -0.8027 -2.361390 16.220600 11.998000
212  2 -0.7744 -0.975701 16.370500 25.078100
213  2 -0.8352  9.389730  7.567160 11.662600
214  2 -0.8583 10.745800  6.884400 25.351600
215  2 -0.8670  9.302660 16.022800 12.055100
216  2 -0.9218 11.491800 15.921400 25.217200
217  2 -0.8332 -1.943180  3.201120 12.447300
218  2 -0.8663 -0.696097  2.962680 26.179800
219  2 -0.8130 20.982300 11.809400 12.179600
220  2 -0.8245 -1.343460 11.585300 25.826000
221  2 -0.7822  8.648790  3.432440 11.199200
222  2 -0.7095 10.753200  3.046210 25.722100
223  2 -0.8291  9.358270 11.811400 12.142900
224  2 -0.8629 10.742100 11.773900 25.412400
225  2 -0.5688  1.440900 15.406400  1.197520
226  2 -0.4709  0.478370  1.451280 14.215700
227  2 -0.4429 -0.235945  7.519220  2.341770
228  2 -0.2909 -0.147175  9.370290 14.300600
229  2 -0.5175 13.239500  1.418020  0.319397
230  2 -0.5227 11.620100  2.092170 13.671800
231  2 -0.3781 13.889300  9.024160 27.384600
232  2 -0.3820 12.110400  9.996440 13.995900
233  2 -0.4016  7.744550 18.225200 26.869500
234  2 -0.5726  7.226560  3.474030 14.570000
235  2 -0.3208  7.802370  9.530880  0.250667
236  2 -0.4891  6.540720  7.108170 14.337800
237  2 -0.3176 21.178400  1.649560  1.195390
238  2 -0.4496 19.166200 18.167800 14.302800
239  2 -0.3297 19.599400  9.474880  0.976731
240  2 -0.4035 17.802500 10.025700 14.049900
241  2 -0.9063  3.321250  8.059650  7.475190
242  2 -0.6723  4.503860  7.550670 21.264300
243  2 -0.8925  3.273300 15.993600  7.679650
244  2 -0.7021  4.776750 16.341400 21.564300
245  2 -0.9252 15.361300  7.361960  7.291070
246  2 -0.8892 17.178200  7.818860 21.248200
247  2 -0.8351 15.625700 16.124100  8.254060
248  2 -0.8625 17.502100 16.137000 21.384700
249  2 -0.9030  3.464580  3.410230  6.867190
250  2 -0.7568  4.843260  2.850890 22.082700
251  2 -0.7751  3.207700 11.838700  7.575090
252  2 -0.7063  5.053610 11.539400 20.291500
253  2 -0.8874 14.987400  2.889420  7.644760
254  2 -0.8409 17.385700  3.054540 21.785200
255  2 -0.9108 14.959200 11.792200  7.415570
256  2 -0.8949 17.390700 11.860600 21.250500
257  2 -0.4509  7.810100  5.348880 27.405200
258  2 -0.0530 11.568300  7.285280 17.249500
259  2 -0.3836  9.274710 15.047600  0.329315
260  2 -0.6068  6.380790 14.898800 14.014200
261  2 -0.2672 19.746400  5.291600  1.478380
262  2 -0.4461 19.223800  4.853030 14.442200
263  2 -0.1526 21.550700 12.032300  2.511550
264  2 -0.4726 18.532600 14.032800 15.106400
265  2 -0.4685  2.565470  4.794860  0.669185
266  2 -0.4093  0.030037  5.750760 13.925600
267  2 -0.3806  0.484354 11.493200  1.550520
268  2 -0.5003 -0.192855 14.189700 14.146300
269  2 -0.3499 13.600300  5.164220  0.677720
270  2 -0.1619 17.389400  2.812850 16.680800
271  2 -0.2510 12.730700 12.310100  1.972700
272  2 -0.3429 12.009100 14.084300 14.265500
273  2 -0.3186 20.926900  2.519990  7.469480
274  2 -0.5811 -1.309150  3.575220 21.533200
275  2 -0.4992 21.901200 12.031100  7.798880
276  2 -0.4270 -1.236470 12.208300 21.643200
277  2 -0.4511  9.594370  3.561750  6.992410
278  2 -0.3674 11.469900  3.294300 20.412000
279  2 -0.4877  9.161690 12.244600  7.411080
280  2 -0.4463  6.164470  8.654070 18.300000
281  2 -0.4646 21.815800  7.896190  7.858330
282  2 -0.4100 -1.377190  7.465630 21.106500
283  2 -0.4237 21.824800 16.038900  7.673750
284  2 -0.3991 -1.169770 15.999700 21.348400
285  2 -0.4450  8.771530  7.658740  7.413680
286  2 -0.3863 10.957300  7.132430 20.855900
287  2 -0.4770  9.308730 15.941500  7.817620
288  2 -0.5127 11.098900 15.430700 20.654800
289  2 -0.4138  7.042250 18.593100  5.430190
290  2 -0.5777  7.880040 18.125800 18.359100
291  2 -0.4274  6.155890 10.356300  5.143410
292  2 -0.2043  4.930200 10.254700 15.243600
293  2 -0.2362 18.548600 17.943900  4.972420
294  2 -0.3161 20.900600 17.447800 19.008500
295  2 -0.5160 18.645400 10.072300  5.968120
296  2 -0.4990 20.249100  9.409330 19.182800
297  2 -0.5188  0.489247 18.265500  5.054490
298  2 -0.3428  1.887870 17.548800 18.751700
299  2 -0.4089  0.644764  9.358860  5.366220
300  2 -0.4703  0.847100 10.091900 19.303100
301  2 -0.4046 12.938200 18.106300  5.245460
302  2 -0.5001 14.126100 18.068000 19.806100
303  2 -0.4395 12.831600  9.989590  5.136160
304  2 -0.3210 14.272800  9.690770 18.855400
305  2 -0.6286  3.218350  3.592010 10.928400
306  2 -0.5941  4.695660  3.247560 25.718500
307  2 -0.5292  3.543700 11.622600 11.760400
308  2 -0.4466  5.011980 11.646600 25.975900
309  2 -0.4305 15.643700  3.168590 11.978100
310  2 -0.4477 17.775500  3.172550 25.626100
311  2 -0.5609 15.029300 11.400700 11.021200
312  2 -0.3775 17.219500 12.020200 26.278000
313  2 -0.4163  3.331450  7.355160 11.534900
314  2 -0.3785  4.983910  7.577320 25.947800
315  2 -0.5730  3.064160 15.971500 11.528200
316  2 -0.4372  5.384730 15.496800 26.107100
317  2 -0.4285 15.408100  7.525630 11.632700
318  2 -0.5293 16.685700  8.055530 25.459200
319  2 -0.4149 15.101700 15.848300 12.044000
320  2 -0.4695 17.802100 16.274400 25.941400

