Generated by pymatgen.io.lammps.data.LammpsData

216  atoms

  2  atom types

0.000000 18.096178  xlo xhi
0.000000 18.140645  ylo yhi
0.000000 18.233787  zlo zhi

Masses

1  208.9804
2   78.9600

Atoms

1    1  0.7577  0.896772 17.462700  0.345597
2    1  0.8133  0.456727 17.568400  6.371670
3    1  0.7648  0.082606 17.829400 12.478500
4    1  0.7589  0.639620  5.625360  0.576897
5    1  0.7624  0.700319  5.890360  5.926780
6    1  0.7089  0.634517  5.838040 12.436800
7    1  0.7427  0.686186 11.579500 -0.080722
8    1  0.7838  0.360095 11.911600  6.429620
9    1  0.7728  0.383893 11.880900 12.746500
10   1  0.8502  6.358120 18.003800  0.806888
11   1  0.7929  6.408300  0.081045  6.487220
12   1  0.7220  6.096430 17.859300 12.423800
13   1  0.8156  6.277900  5.378680 18.082600
14   1  0.7493  6.129280  5.604710  6.249390
15   1  0.8593  6.206050  6.118180 12.706000
16   1  0.7541  6.543480 12.439200  0.444327
17   1  0.7616  6.557990 11.362700  6.460550
18   1  0.7919  6.213120 11.421900 12.132600
19   1  0.7725 12.526200 17.984000  0.427714
20   1  0.7968 12.643500 17.929600  6.141350
21   1  0.6908 12.490500  0.224055 12.125900
22   1  0.8400 12.448900  5.309130  0.627458
23   1  0.8921 12.607100  5.478440  6.494900
24   1  0.8124 12.284700  5.324680 13.225700
25   1  0.6831 12.609500 11.651000  0.480189
26   1  0.7982 12.467600 11.227300  6.439700
27   1  0.8391 12.530200 11.897600 12.502300
28   1  0.8072  0.339084  2.339080  2.858180
29   1  0.7772  0.215030  2.772380  9.431420
30   1  0.8207  0.921518  2.524150 15.287600
31   1  0.6771  1.090860  8.785070  3.273480
32   1  0.7028 -0.131832  8.983000  8.982820
33   1  0.8025  0.842749  8.751130 15.451300
34   1  0.7994  0.018101 14.423600  3.212760
35   1  0.7795  0.481939 15.024600  9.199430
36   1  0.7231  1.051020 14.539500 15.163600
37   1  0.8206  6.449300  2.518840  3.324410
38   1  0.7355  6.664770  2.860860  9.425340
39   1  0.7505  6.150010  2.933300 15.512400
40   1  0.8858  6.808300  8.502430  3.125800
41   1  0.8097  6.340660  8.706170  9.198140
42   1  0.8676  6.627130  8.978950 15.841700
43   1  0.6778  7.035170 14.912500  3.660690
44   1  0.7633  6.441520 15.261100  9.715070
45   1  0.7599  6.925700 14.249900 14.972800
46   1  0.7402 12.588400  2.910200  3.455340
47   1  0.8392 12.351500  2.654040  9.221630
48   1  0.8432 12.650000  2.788440 15.812500
49   1  0.7876 12.552800  9.108960  3.115240
50   1  0.8216 12.096000  8.485630  9.786670
51   1  0.7744 12.848400  8.963670 15.174900
52   1  0.8465 12.398000 14.872900  3.576940
53   1  0.8751 12.278100 15.059600  9.217070
54   1  0.7934 12.497400 14.876100 15.493800
55   1  0.7507  4.014780 17.469400  3.436250
56   1  0.8110  3.695300 17.959100  9.436430
57   1  0.8267  3.280150 17.714500 15.386200
58   1  0.6454  3.676610  5.730780  2.911770
59   1  0.7872  2.677650  5.744960  9.417350
60   1  0.7030  3.177470  5.926930 15.079200
61   1  0.8551  3.792330 11.636000  2.796880
62   1  0.7324  3.430550 11.970600  9.476920
63   1  0.8124  3.584850 12.011400 15.233000
64   1  0.8394  9.715300 17.973600  3.581830
65   1  0.7612  8.936270 18.208400  9.789210
66   1  0.8415  9.179710  0.108766 15.369900
67   1  0.7947  9.741750  6.027350  3.708160
68   1  0.8160  9.308370  5.643310  9.381480
69   1  0.8164  9.623760  5.697050 15.833100
70   1  0.8029  9.957830 12.429400  3.214950
71   1  0.9249  9.631910 11.651200  9.243690
72   1  0.6505  9.338430 11.970600 15.754800
73   1  0.7760 15.528900 17.811100  3.075320
74   1  0.6746 15.302200 18.233700  9.902100
75   1  0.8040 14.993100  0.221221 15.150800
76   1  0.8068 15.448200  5.412690  3.269910
77   1  0.7995 15.138500  5.731420  9.149570
78   1  0.8188 15.546600  5.631600 15.592800
79   1  0.7333 15.374700 11.313100  3.109100
80   1  0.7348 15.620300 12.110000  8.983730
81   1  0.7211 16.053300 11.354100 15.418200
82   1  0.7928  3.312340  2.984170  0.185036
83   1  0.8498  3.416450  3.019700  5.954940
84   1  0.7576  3.572440  2.252780 12.810000
85   1  0.7924  3.889030  9.180000  0.354684
86   1  0.9110  3.612830  8.744550  6.318060
87   1  0.8107  3.482810  8.423510 12.388300
88   1  0.6940  3.579880 14.940800 18.411400
89   1  0.7484  3.786180 14.745900  6.080840
90   1  0.6833  3.692320 14.903600 11.820800
91   1  0.8731  9.536580  2.846400  0.454966
92   1  0.7669  8.995780  3.023220  6.400110
93   1  0.7747  9.338450  2.513220 12.235700
94   1  0.7470 10.014900  9.144300 -0.030500
95   1  0.7110  9.447090  8.647530  6.813790
96   1  0.8634  9.568670  8.790660 12.041700
97   1  0.8305  9.863670 15.059900  0.825598
98   1  0.9104  9.474050 15.251000  6.601250
99   1  0.7779  9.688390 15.304100 12.977100
100  1  0.8562 15.587800  2.724140  0.450317
101  1  0.7918 15.832900  2.572140  5.620780
102  1  0.7123 16.194100  3.142090 12.202400
103  1  0.7787 15.527500  8.961970  0.414064
104  1  0.6513 15.241800  8.755960  6.706850
105  1  0.7358 15.738200  8.425010 12.381400
106  1  0.7969 15.333700 15.440200 -0.000739
107  1  0.7945 15.158000 15.013000  6.137860
108  1  0.7441 15.044100 14.901700 12.066200
109  2 -0.7840  3.704460 17.865200 18.005300
110  2 -0.7237  3.859880 17.947200  6.345270
111  2 -0.8478  3.157210 17.752300 12.426400
112  2 -0.8358  3.625900  5.798110 18.273700
113  2 -0.8357  3.474450  6.093600  6.213690
114  2 -0.8249  3.633880  5.433740 12.194400
115  2 -0.8721  3.810360 12.099000  0.200564
116  2 -0.6736  3.773960 11.321900  5.979810
117  2 -0.7832  3.534170 11.231200 12.358000
118  2 -0.6723  9.358570 18.180900  0.727834
119  2 -0.7342  9.564510 17.927800  6.857620
120  2 -0.9000  9.215680 18.175400 12.670000
121  2 -0.7236  9.849100  5.631440  0.515062
122  2 -0.8188  9.889900  5.675520  6.405690
123  2 -0.7036  9.596920  5.985750 12.348200
124  2 -0.8416  9.330810 12.089100  0.610478
125  2 -0.6719  9.637310 12.364400  6.401210
126  2 -0.6851  9.930820 11.767400 11.696400
127  2 -0.7994 15.400200  0.187458 18.148600
128  2 -0.7981 15.537800 17.978300  5.929240
129  2 -0.9098 15.368700 17.887700 12.546700
130  2 -0.7273 15.317300  5.793610  0.518941
131  2 -0.7725 15.497100  5.576370  6.065730
132  2 -0.7896 15.348900  5.598960 12.279700
133  2 -0.7147 15.627800 12.378500  0.260154
134  2 -0.7940 15.172500 11.967400  6.149670
135  2 -0.7158 15.552100 11.849700 11.989400
136  2 -0.7567  3.545740  2.178130  3.049700
137  2 -0.6518  3.464110  2.895410  9.009480
138  2 -0.8881  3.464270  2.578010 15.636100
139  2 -0.7847  4.101600  9.121850  3.217150
140  2 -0.7337  3.548970  8.510980  9.018140
141  2 -0.7481  3.802880  8.905670 15.673000
142  2 -0.7424  3.245050 14.601400  3.418880
143  2 -0.8272  3.411650 14.972500  9.024950
144  2 -0.8150  3.706010 14.893500 14.892900
145  2 -0.7555  9.336460  2.703840  3.326770
146  2 -0.8454  9.504880  2.739690  9.311060
147  2 -0.7560 10.020900  3.063010 15.820800
148  2 -0.7069  9.507130  9.014090  3.204640
149  2 -0.9002  9.395890  8.991760  9.636530
150  2 -0.7784  9.309350  8.696090 15.583700
151  2 -0.9410  9.695300 15.338400  3.451190
152  2 -0.6689  9.827230 14.542600  9.136320
153  2 -0.7700  9.653270 14.955300 15.719000
154  2 -0.9517 15.584600  2.517140  2.979480
155  2 -0.7714 15.758300  2.941070  8.829310
156  2 -0.7569 15.582300  2.856840 15.508500
157  2 -0.8411 15.056800  8.925200  3.368190
158  2 -0.8164 15.496900  8.779270  9.794920
159  2 -0.8016 15.600300  8.629020 15.953500
160  2 -0.7769 14.906100 15.076100  3.062080
161  2 -0.7936 14.989400 15.192800  9.133240
162  2 -0.6503 15.425900 14.841000 15.459700
163  2 -0.7115  1.164620 17.577900  3.188750
164  2 -0.7639  0.593369 17.821300  9.099640
165  2 -0.7144  0.259244 17.964200 15.419800
166  2 -0.8129  0.297196  5.199390  3.237230
167  2 -0.7861 -0.077034  5.799680  9.644980
168  2 -0.7840  0.433694  5.578770 15.435900
169  2 -0.7057  1.063020 11.710800  3.625400
170  2 -0.8167  0.554160 12.169500  9.077850
171  2 -0.9079  0.857298 11.517500 15.459200
172  2 -0.8708  6.949420 17.796500  3.606310
173  2 -0.9637  6.323880 -0.188694  9.589530
174  2 -0.7059  6.414650 18.124200 15.049600
175  2 -0.7314  6.584740  5.352220  2.530070
176  2 -0.7598  6.626000  5.939930  9.233110
177  2 -0.7925  6.650140  6.090500 15.305200
178  2 -0.6965  6.854660 11.562900  3.398750
179  2 -0.7938  6.559140 11.378700  9.435500
180  2 -0.8532  6.382980 11.873500 15.752100
181  2 -0.8356 12.863200 17.976700  3.286040
182  2 -0.7799 12.296100 18.088200  9.007140
183  2 -0.7616 12.020300  0.226400 15.329200
184  2 -0.7788 12.447300  6.077360  3.715820
185  2 -0.7329 12.209900  5.510460  9.235430
186  2 -0.8059 12.554500  5.534170 15.814000
187  2 -0.8624 12.394700 11.963200  3.598830
188  2 -0.6739 12.467700 11.790100  9.173560
189  2 -0.7761 12.874800 11.627100 15.221000
190  2 -0.7775  0.471401  2.730780  0.168139
191  2 -0.7117  0.713451  2.890640  5.813020
192  2 -0.8521  0.781104  2.753070 12.221700
193  2 -0.8131  0.771774  8.857140  0.223266
194  2 -0.8004  0.782875  8.856230  6.214700
195  2 -0.8230  0.815045  8.826750 12.822600
196  2 -0.7774  0.571576 14.774600  0.621158
197  2 -0.7612 18.061900 14.893100  6.209480
198  2 -0.7554  0.494926 14.707500 12.422200
199  2 -0.7734  6.511370  2.472470  0.446652
200  2 -0.8997  6.022690  2.884920  6.154140
201  2 -0.7800  6.645930  3.114770 12.667000
202  2 -0.6868  6.670580  8.340190  0.240531
203  2 -0.8095  6.439090  8.421700  5.787760
204  2 -0.7911  6.227770  8.696080 12.262800
205  2 -0.7089  7.073680 15.414500  0.179332
206  2 -0.7606  6.762980 14.918700  6.798740
207  2 -0.8379  6.944810 14.407900 12.166000
208  2 -0.8674 12.330300  2.757310  0.545188
209  2 -0.7288 12.117000  2.758530  6.438240
210  2 -0.7882 12.550000  2.951670 12.431300
211  2 -0.7987 12.818100  8.818280  0.150514
212  2 -0.7930 12.148600  8.354150  7.059630
213  2 -0.7982 12.224600  8.870960 12.500900
214  2 -0.7856 12.416900 14.908000  0.293185
215  2 -0.7020 12.206800 14.677700  6.476180
216  2 -0.8230 12.216900 14.834400 12.722300

