Generated by pymatgen.io.lammps.data.LammpsData

7  atoms

1  atom types

0.000000 8.119685  xlo xhi
0.000000 4.949908  ylo yhi
0.000000 4.439701  zlo zhi
6.436435 6.436436 2.188753  xy xz yz

Masses

1  208.9804

Atoms

1  1 10.496278 3.569331 2.219850
2  1 13.557617 4.610360 2.867291
3  1  4.471458 1.520550 0.945665
4  1 16.521099 5.618112 3.494035
5  1  7.434939 2.528302 1.572410
6  1 19.426915 6.606255 4.108584
7  1  1.565641 0.532407 0.331116

