Generated by pymatgen.io.lammps.data.LammpsData

360  atoms

  2  atom types

0.000000 16.871067  xlo xhi
0.000000 22.058404  ylo yhi
0.000000 29.928687  zlo zhi

Masses

1  208.9804
2   78.9600

Atoms

1    1  0.7759  1.637620 13.651800 21.712700
2    1  0.6751  3.934690 17.022700 21.604700
3    1  0.6705  1.782690  6.473200 21.866900
4    1  0.7519  4.232980 10.121900 21.318700
5    1  0.7652  6.402660 13.925600 21.321800
6    1  0.7162  8.185490 17.235500 21.574500
7    1  0.7408  1.777050 21.024400 21.622400
8    1  0.7782  3.506130  2.887490 22.173700
9    1  0.7376  6.333330  6.297240 22.208300
10   1  0.6991  8.091680  9.927770 21.938800
11   1  0.8218 10.478300 13.778900 21.840500
12   1  0.7816 12.351500 17.529000 23.002900
13   1  0.7584  6.320450 20.399500 22.045500
14   1  0.7214  7.952420  2.977680 22.264500
15   1  0.8536  9.821940  6.884410 22.114000
16   1  0.7218 12.141500 10.083800 21.907200
17   1  0.7746 14.920300 13.784900 22.542700
18   1  0.8025  0.236397 17.437900 22.345000
19   1  0.8110 10.392800 21.615800 22.528300
20   1  0.7456 11.878500  3.075880 23.854000
21   1  0.7685 14.278200  6.047370 22.371900
22   1  0.7596 16.268400 10.314600 21.775500
23   1  0.7124 14.257600 20.952800 22.690600
24   1  0.7628 16.007300  2.938510 22.424400
25   1  0.7522  1.921480 13.944900 28.585500
26   1  0.7877  3.815290 17.673400 28.374000
27   1  0.7279  1.762330  6.569020 28.855400
28   1  0.8343  3.907520 10.164100 28.960800
29   1  0.7403  5.378420 14.237100 28.510800
30   1  0.8310  7.993480 17.692200 28.469800
31   1  0.7479  1.411260 21.430400 28.223000
32   1  0.7992  3.419440  2.736990 27.773200
33   1  0.7427  5.610470  6.278520 28.656200
34   1  0.8166  8.199910 10.066300 28.146700
35   1  0.7048  9.812410 13.892300 28.218700
36   1  0.8003 11.976700 17.437200 28.298500
37   1  0.7978  6.558900 21.184700 28.901700
38   1  0.7481  8.158260  2.655010 28.029800
39   1  0.7950  9.766010  5.993840 27.733900
40   1  0.7806 11.882600 10.431700 28.260100
41   1  0.7190 14.298200 13.499100 28.687600
42   1  0.6956 16.489000 16.738500 28.314900
43   1  0.9099 10.346700 21.050100 29.190800
44   1  0.7631 12.107400  2.768930 28.619600
45   1  0.8086 13.824100  5.968230 28.810200
46   1  0.7926 16.621400 10.369700 28.655600
47   1  0.7554 14.702700 20.796600 28.043900
48   1  0.8170 16.506800  2.966200 28.353100
49   1  0.7414  2.207920 16.173000  2.563130
50   1  0.7911  3.797230 19.825000  1.692430
51   1  0.7859  2.180210  9.343720  2.211380
52   1  0.7213  4.074850 12.651900  2.183310
53   1  0.7385  5.751340 16.230900  2.200900
54   1  0.7883  7.835870 19.806600  2.242410
55   1  0.7908  1.145690  1.457480  1.614630
56   1  0.6453  3.986180  5.599590  1.973280
57   1  0.7230  6.021660  8.502970  2.385060
58   1  0.7678  8.090390 12.837300  1.604980
59   1  0.7909 10.050000 15.955500  1.578280
60   1  0.7738 12.153400 20.221300  2.567580
61   1  0.8377  5.544210  1.705810  1.485330
62   1  0.7268  8.115370  5.003410  1.396040
63   1  0.8156 10.496200  8.389360  2.825510
64   1  0.7627 12.203100 12.335900  2.290200
65   1  0.6890 14.884900 16.321500  1.809440
66   1  0.5860 16.080700 19.834600  1.721400
67   1  0.7722 10.623200  1.955670  1.868800
68   1  0.7962 12.545400  5.016810  2.558640
69   1  0.7287 14.219300  8.697240  2.798230
70   1  0.7802 16.631900 12.174200  2.163350
71   1  0.7627 14.326700  1.467640  2.051850
72   1  0.7346 16.727800  5.343870  2.063770
73   1  0.6250  2.392480 16.069700  8.178310
74   1  0.7703  4.089540 19.421100  8.221080
75   1  0.7627  2.205260  8.878350  9.119540
76   1  0.7518  4.162360 12.521000  9.004910
77   1  0.8458  6.616650 16.323700  8.708910
78   1  0.8599  8.362750 19.588300  8.757650
79   1  0.8315  2.157100  1.099180  6.956400
80   1  0.7463  4.139190  5.449830  8.766480
81   1  0.8269  6.335400  8.814590  8.840290
82   1  0.8632  8.796280 12.539800  9.122690
83   1  0.7791 10.748500 16.273300  9.138980
84   1  0.7438 12.646700 19.680500  8.767220
85   1  0.7744  5.753060  0.858797  8.595580
86   1  0.8124  7.901900  5.069440  8.971850
87   1  0.7639 11.033600  8.844820  9.082720
88   1  0.6752 12.812900 12.629800  8.908910
89   1  0.7724 15.086900 16.022900  8.981960
90   1  0.7043  0.595480 20.137000  9.907860
91   1  0.5864 10.493400  1.467290  9.475690
92   1  0.6987 12.487800  5.232340  9.401750
93   1  0.7549 15.056100  9.285650  8.748720
94   1  0.7804 -0.001211 12.558700  9.018060
95   1  0.7331 14.272200  1.618550  9.026620
96   1  0.8010 16.854900  4.847600  8.386630
97   1  0.8218 -0.046995 14.953700 12.458500
98   1  0.6722  2.401730 18.268300 12.302000
99   1  0.7760 16.704400  7.483430 12.437600
100  1  0.8299  2.616630 10.833700 12.850200
101  1  0.7732  4.665000 15.007800 12.046200
102  1  0.8207  6.098040 18.482700 12.437600
103  1  0.7782 16.329500 21.965800 13.346200
104  1  0.7541  2.036890  3.945320 12.808400
105  1  0.7386  3.748290  7.290550 12.071200
106  1  0.8005  7.437080 11.056300 12.706700
107  1  0.8434  8.796290 15.016700 12.160100
108  1  0.7519 10.745400 18.185500 11.998600
109  1  0.7715  3.524660  0.289111 12.504300
110  1  0.8159  5.543300  3.743430 12.411200
111  1  0.7945  7.553170  6.989720 12.397100
112  1  0.7913 11.318600 11.392600 11.865800
113  1  0.8331 12.777300 14.773300 12.433600
114  1  0.7485 14.722500 18.104900 12.541800
115  1  0.8017  7.621010 -0.009677 12.204000
116  1  0.7270  9.824550  3.609660 12.942700
117  1  0.7594 11.925800  7.719090 12.460700
118  1  0.8444 15.032700 10.769200 12.506700
119  1  0.7068 12.395300 21.807700 12.296400
120  1  0.7013 14.667300  4.004740 12.765100
121  1  0.7893 16.292100 14.736200 17.832200
122  1  0.7408  1.727740 18.234500 18.057700
123  1  0.7966 16.717000  7.611470 18.795700
124  1  0.8711  1.645240 11.268200 18.311600
125  1  0.7185  3.365940 14.797700 18.528800
126  1  0.7517  6.226220 18.313100 18.536200
127  1  0.7602 16.490600  0.242956 18.987000
128  1  0.8100  1.992000  3.628160 18.417000
129  1  0.7717  3.492460  7.889560 18.212200
130  1  0.7730  6.357060 11.213500 17.837800
131  1  0.8943  8.306580 14.832800 18.106300
132  1  0.8460 10.206700 18.645400 18.755500
133  1  0.7281  3.972440  0.484569 19.136500
134  1  0.7929  6.184300  4.051260 18.610800
135  1  0.8901  8.167450  7.289780 18.448300
136  1  0.8204  9.932540 11.193400 18.048200
137  1  0.8273 12.473100 14.768100 18.880200
138  1  0.8962 14.302000 18.573900 19.106300
139  1  0.7491  8.197830  0.609539 19.466800
140  1  0.7647 10.242500  3.893660 18.463700
141  1  0.8675 12.330100  7.295040 18.421100
142  1  0.7537 14.697500 11.220200 18.785100
143  1  0.8283 12.026700  0.333657 19.035800
144  1  0.8088 14.201200  4.141680 19.201500
145  2 -0.8548 16.858600 14.555800  0.469336
146  2 -0.8398  1.667220 18.394400 29.852000
147  2 -0.7443 15.972900  7.804130  0.523284
148  2 -0.9398  1.750910 11.085700  0.460130
149  2 -0.9753  3.783420 15.070500  0.598307
150  2 -0.9098  5.924430 18.806000  0.470551
151  2 -0.9057 16.201800  0.611377 29.824300
152  2 -0.8527  1.727240  3.841570 -0.024556
153  2 -0.9988  3.865310  8.047440  0.539163
154  2 -0.8190  6.203060 11.321500  0.317658
155  2 -0.9585  7.962650 15.191300 30.107400
156  2 -0.8143 10.187600 18.662300  0.082284
157  2 -0.7793  3.574310  0.321768 30.279400
158  2 -0.8637  5.636100  3.685050 29.726900
159  2 -0.6951  8.215860  7.631470  0.155967
160  2 -0.8088  9.836610 11.241300  0.071958
161  2 -0.8109 12.278100 14.944800  0.551788
162  2 -0.7734 13.566200 18.796000  0.396827
163  2 -0.8369  8.440380  0.274275  0.399826
164  2 -0.9025 10.179500  4.264010 30.190300
165  2 -0.7414 11.797100  7.359570  0.998183
166  2 -0.8222 14.114400 11.057800  0.649054
167  2 -0.8865 12.157800  0.084719  0.749869
168  2 -0.8641 14.093900  3.791140  0.411114
169  2 -0.3138  1.869280 16.101500 26.482100
170  2 -0.2595  4.221590 20.553700 26.811100
171  2 -0.3356  1.750370  9.103340 27.291800
172  2 -0.3353  3.953970 12.674000 26.861600
173  2 -0.3603  5.554130 16.751500 26.820300
174  2 -0.4166  8.303410 19.960300 27.360900
175  2 -0.4182  1.277510  1.444190 26.472000
176  2 -0.2942  3.398660  5.553090 26.453100
177  2 -0.3236  5.740970  8.850470 26.961900
178  2 -0.1842  7.106070 13.220900 26.056400
179  2 -0.3528  9.179390 16.090200 26.552100
180  2 -0.3756 11.825000 20.030000 27.103200
181  2 -0.4166  6.332000  1.479760 27.023100
182  2 -0.3833  7.007800  5.590730 26.648200
183  2 -0.3984 10.155600  8.514130 26.665500
184  2 -0.4533 12.153300 12.548600 26.789100
185  2 -0.4777 14.133900 15.849100 27.013700
186  2 -0.3963 -0.199091 19.829600 26.455300
187  2 -0.3733 10.131800  1.128540 26.734300
188  2 -0.5340 12.369000  4.694920 26.984100
189  2 -0.1758 14.307700  8.837230 26.589100
190  2 -0.3324 16.503500 12.743200 26.755200
191  2 -0.3407 14.406900  1.626330 26.670900
192  2 -0.3445 16.264300  5.822320 27.243000
193  2 -0.3781 16.985800 14.872100 23.925300
194  2 -0.3308  2.618910 18.815000 23.569400
195  2 -0.2588 16.668400  7.900510 23.837100
196  2 -0.2621  1.728980 11.413400 23.550600
197  2 -0.2595  3.845180 14.753500 23.558300
198  2 -0.3261  6.019060 17.616400 23.519900
199  2 -0.4470 -0.119106  0.458912 23.324000
200  2 -0.3781  1.437070  4.489400 23.868100
201  2 -0.1555  3.785930  8.106720 24.298300
202  2 -0.2810  5.336910 11.610000 23.407400
203  2 -0.4621  8.490310 14.593000 22.989500
204  2 -0.3063 10.065500 19.030900 24.157100
205  2 -0.2970  4.546730 21.546900 23.494100
206  2 -0.3524  5.706580  3.986330 24.014500
207  2 -0.4652  8.287740  7.851930 23.824800
208  2 -0.3972 10.196800 11.636900 23.659300
209  2 -0.3178 12.644500 14.696500 24.165800
210  2 -0.4170 15.024600 18.385200 24.211300
211  2 -0.2647  7.769560  0.378440 24.096600
212  2 -0.4404  9.502070  4.620690 24.372400
213  2 -0.4041 12.090700  7.529200 23.668800
214  2 -0.3730 14.701100 11.160900 23.748100
215  2 -0.4300 12.052400  0.333793 24.526300
216  2 -0.4080 14.516000  4.333140 24.444300
217  2 -0.7140  1.833730 13.519000 10.968800
218  2 -0.9242  4.706290 17.477300 10.083200
219  2 -0.8807  1.720850  6.484690 10.405900
220  2 -0.7853  4.679460 10.362800 10.659600
221  2 -0.7818  6.906190 13.558100 11.039600
222  2 -0.8636  8.313320 17.230200 10.634600
223  2 -0.7142  3.059660 21.524700  9.669950
224  2 -0.7036  3.524170  2.634580 10.560100
225  2 -0.9662  5.889270  6.237730 10.499200
226  2 -0.7712  8.964330  9.964990 10.420000
227  2 -0.9849 10.485100 13.549400 10.636700
228  2 -0.9595 12.665100 16.812800 10.835300
229  2 -0.7818  6.419130 20.602800 10.454700
230  2 -0.8204  7.232020  2.312780 10.711900
231  2 -0.7898  9.750140  5.798310 11.053500
232  2 -0.9688 12.807000  9.813090 10.793900
233  2 -0.8802 14.835600 13.790800 10.689100
234  2 -0.8574 16.848100 17.493600 10.594500
235  2 -0.8864 10.431100 20.363900 10.500900
236  2 -0.8753 12.482500  2.551950 11.177600
237  2 -0.7391 14.840800  6.381180 10.304400
238  2 -0.8482 16.655800  9.932680 10.675700
239  2 -0.7863 14.814500 20.632700 11.121400
240  2 -0.6353 16.854200  1.498850 10.672800
241  2 -0.3080 -0.020216 14.918600  6.700070
242  2 -0.2950  0.872930 20.090300  7.027760
243  2 -0.2208 17.015300  7.935060  6.695880
244  2 -0.4878  2.079620 11.480400  7.819860
245  2 -0.4323  4.548270 15.113100  6.836770
246  2 -0.3876  7.032030 18.087300  7.039710
247  2 -0.2505 16.352000  1.301120  6.650030
248  2 -0.3821  2.065770  4.199370  6.650180
249  2 -0.4228  4.182360  8.101810  7.324890
250  2 -0.3389  6.741470 11.008600  7.565870
251  2 -0.3250  8.530230 14.987800  7.350830
252  2 -0.3887 10.602000 18.276800  7.237970
253  2 -0.4018  4.595190 21.421100  6.528670
254  2 -0.3053  6.384520  4.903470  6.774410
255  2 -0.4193  8.921790  7.174300  7.943920
256  2 -0.2635 10.346600 11.258700  6.939890
257  2 -0.3451 12.350900 14.676300  7.266690
258  2 -0.2503 15.002500 18.269300  7.135670
259  2 -0.2814  8.076420 -0.099403  7.014310
260  2 -0.2111  9.520840  3.055120  7.008880
261  2 -0.3644 12.848300  7.493080  7.115460
262  2 -0.3397 15.221200 11.763700  6.797790
263  2 -0.3437 12.768700 21.886800  7.072030
264  2 -0.4041 14.348600  3.947280  7.543610
265  2 -0.3415  2.197750 13.456300  4.135750
266  2 -0.3892  4.413770 18.014700  3.986090
267  2 -0.4099  1.985540  6.365100  3.761590
268  2 -0.3377  4.270940 10.441000  4.088720
269  2 -0.1987  6.244780 13.242900  4.427000
270  2 -0.3700  7.996800 17.263800  3.618910
271  2 -0.3189  1.806800 20.672400  3.793820
272  2 -0.3453  3.355390  2.388460  3.455710
273  2 -0.3760  7.179450  6.423450  3.781930
274  2 -0.2131  8.629790 10.046300  4.250440
275  2 -0.3327  9.892550 13.273800  3.580650
276  2 -0.2269 12.165600 16.500300  3.796480
277  2 -0.3820  5.686820 21.660000  3.093370
278  2 -0.3329  8.173100  2.658380  3.222290
279  2 -0.2503 10.406600  5.679580  4.401190
280  2 -0.4255 12.250200 10.032400  4.402080
281  2 -0.2176 14.863500 14.366300  4.103390
282  2 -0.3294  0.086526 17.623000  4.019410
283  2 -0.3189 10.490600 21.502000  4.119900
284  2 -0.3544 12.747700  2.749640  4.037760
285  2 -0.3419 14.536400  5.485460  4.227960
286  2 -0.3709 16.635700 10.136600  4.023260
287  2 -0.2099 14.780300 21.043100  4.714200
288  2 -0.4288 16.583600  2.769220  3.428880
289  2 -0.8871  1.436030 15.975700 20.159700
290  2 -0.8660  4.124970 19.680600 20.153800
291  2 -0.9107  1.806010  9.560210 19.901000
292  2 -0.8184  3.937490 12.346300 19.868400
293  2 -0.9252  6.104120 15.964400 19.571500
294  2 -0.8503  8.546140 20.238600 20.633900
295  2 -0.8664  1.636770  1.446260 20.457500
296  2 -0.7893  3.845940  5.016890 20.123200
297  2 -0.8460  6.259380  8.654450 20.127800
298  2 -0.8857  8.270640 12.653300 19.599000
299  2 -0.8068 10.260600 16.291700 20.331100
300  2 -0.7618 11.968600 19.584000 20.888200
301  2 -0.8545  5.708660  2.095680 20.577100
302  2 -0.8849  8.347270  5.546620 20.550300
303  2 -0.8151  9.982010  8.689660 19.847400
304  2 -0.8598 12.507900 12.668100 20.418200
305  2 -0.7133 14.083300 16.339500 20.651100
306  2 -0.7881 16.330800 19.173900 20.344400
307  2 -0.8912 10.346400  1.557070 20.808900
308  2 -0.7864 11.972400  5.348900 20.513700
309  2 -0.8038 14.526200  8.551600 20.452200
310  2 -0.9382 16.662900 12.532000 20.004300
311  2 -0.7770 14.416000  1.563190 20.715600
312  2 -0.8425 16.514500  5.407200 20.232300
313  2 -0.2878  2.080610 13.806200 16.031800
314  2 -0.3067  3.921030 16.944700 16.421000
315  2 -0.3369  2.921920  5.722040 17.028000
316  2 -0.4108  3.497270 10.656100 16.603300
317  2 -0.2537  6.735770 13.704100 16.143300
318  2 -0.4532  8.582630 17.434300 17.164900
319  2 -0.2894  3.128170 20.945100 16.713600
320  2 -0.3422  4.167440  2.599630 16.942100
321  2 -0.3268  6.099600  6.360240 16.963300
322  2 -0.4058  8.028310  9.569860 16.501800
323  2 -0.4115 10.167900 13.660200 16.959600
324  2 -0.2887 12.607200 16.850400 17.088700
325  2 -0.1273  6.182010 20.821100 16.278000
326  2 -0.3476  8.144900  2.355210 16.892300
327  2 -0.4318 10.011100  6.193640 16.883900
328  2 -0.3799 12.418600  9.687070 17.150100
329  2 -0.3895 14.620200 13.374500 16.673800
330  2 -0.4475 15.926100 17.315200 17.207700
331  2 -0.4325  9.664790 21.528700 17.864000
332  2 -0.3888 12.680000  2.744550 17.437200
333  2 -0.4488 14.569800  6.181000 17.539800
334  2 -0.4018 16.621700  9.819850 16.886100
335  2 -0.4615 14.407800 20.966100 17.853500
336  2 -0.3324 -0.476347  2.260540 16.916300
337  2 -0.4752  2.365500 15.814800 13.406000
338  2 -0.4029  3.869100 19.603900 14.055500
339  2 -0.4532  1.901600  8.349240 13.960000
340  2 -0.2854  4.890590 12.410800 13.958400
341  2 -0.3489  6.566560 15.983600 13.837500
342  2 -0.3338  8.110270 19.986400 13.893000
343  2 -0.4796  1.684460  1.454060 14.173700
344  2 -0.4611  4.289450  5.541200 13.810600
345  2 -0.3148  5.817600  8.377500 14.186300
346  2 -0.2694  8.705540 12.772800 14.342900
347  2 -0.3007 10.665200 15.826200 14.337700
348  2 -0.3080 12.131900 19.925200 14.419300
349  2 -0.4033  6.004200  1.658090 13.894300
350  2 -0.3354  7.939470  5.287160 14.440800
351  2 -0.4016  9.950450  9.487680 13.712300
352  2 -0.3775 12.817700 12.414000 14.002900
353  2 -0.3945 14.360800 15.859500 14.281700
354  2 -0.4292  0.306126 19.500800 14.410200
355  2 -0.2081 10.208700  1.148300 14.813300
356  2 -0.4190 12.517300  5.335100 13.904800
357  2 -0.3351 14.604900  8.467220 14.187800
358  2 -0.3936  0.278052 11.927400 13.662000
359  2 -0.3056 13.905500  1.160110 14.552200
360  2 -0.3709  0.617475  5.241340 14.524600

