Generated by pymatgen.io.lammps.data.LammpsData

360  atoms

  2  atom types

0.000000 16.677463  xlo xhi
0.000000 21.699897  ylo yhi
0.000000 28.493178  zlo zhi

Masses

1  208.9804
2   78.9600

Atoms

1    1  0.7824 14.370600 14.363900 21.768000
2    1  0.7783  3.721590 20.061100 25.725200
3    1  0.8961  1.147730  3.938020 18.594500
4    1  0.6526  6.029390 14.665000 12.743800
5    1  0.7598  7.885470  6.932310  2.065800
6    1  0.7990  9.920050 14.361100 24.619200
7    1  0.7195 11.550700  0.132879 21.010500
8    1  0.8426  1.457010  4.774420  0.059777
9    1  0.7180  6.404060  4.284230 16.231100
10   1  0.7018  2.849780  6.203800 15.013900
11   1  0.7331  7.401470 10.544100 25.406000
12   1  0.9079  1.179780  0.230854 28.435300
13   1  0.6972  9.305900  7.611620 26.951500
14   1  0.8290  1.996490  2.403340 23.343500
15   1  0.6730  5.261680  1.969740 21.577600
16   1  0.8406 12.353200  3.378850 19.200100
17   1  0.7548 14.565200  8.441790 23.753600
18   1  0.8866  4.968870  1.470530 27.302400
19   1  0.6108  6.850530 14.396900 16.926700
20   1  0.7340  7.929200  1.229000 19.459800
21   1  0.7307 15.953800  6.936300  1.637840
22   1  0.6761  9.881500  8.119670 24.120600
23   1  0.8087  9.405340 17.175700 21.032600
24   1  0.6738  2.106160  7.073930  6.993940
25   1  0.8388 16.346100 10.707400 20.297200
26   1  0.7948  6.871430 21.614400 24.904600
27   1  0.7909  3.427830 11.798000 25.939600
28   1  0.8381  1.524360  7.154690 25.373000
29   1  0.9191  1.162040 17.134500 25.810300
30   1  0.8128  5.234620 18.289200  0.339139
31   1  0.7279  1.204070 14.929800 22.073300
32   1  0.6998  5.460720  8.309650 23.877100
33   1  0.8577  5.223150 15.118400 22.580600
34   1  0.7845  5.076490 11.304800 28.326400
35   1  0.9324  9.545060 15.497100  0.816572
36   1  0.7737 13.342000 18.835000 21.549100
37   1  0.7099 10.652000  0.822290 23.999100
38   1  0.7436 10.559500  3.369070 27.139900
39   1  0.6745 12.575400  6.102460 27.410400
40   1  0.7365 10.322300  4.974530 22.233500
41   1  0.7059 12.465600 11.811900 23.478600
42   1  0.8326 13.258400 15.437700 26.824600
43   1  0.7714  8.394640 17.290500 25.795500
44   1  0.8532 15.309700  3.477800 25.380700
45   1  0.9223 15.504800 20.684500 25.359500
46   1  0.7433 14.320300  5.651300 21.303800
47   1  0.8225  4.284470  0.474773  2.733830
48   1  0.8172  6.197010  4.976970 24.142100
49   1  0.8540  2.375480 12.769600  4.998350
50   1  0.6139  5.316690  0.199029  9.153430
51   1  0.7591  2.576290  8.501190  3.233640
52   1  0.8234  0.943088 12.332600  0.721969
53   1  0.7192  5.912040 17.070900  6.471490
54   1  0.6263 10.537000 15.246200  7.386650
55   1  0.7284  8.040400  0.626361  2.434690
56   1  0.6569  3.029810  4.167250 12.169900
57   1  0.8262  4.922230  5.797150  1.267780
58   1  0.8720 15.110100 10.007200  5.882240
59   1  0.8147 14.627300 10.687100 27.006300
60   1  0.8117 15.864500 19.137100  4.850540
61   1  0.8381 12.804600 17.922800  1.060160
62   1  0.6379  7.672750  2.794230  5.458090
63   1  0.6110 12.747200  4.420330 23.792600
64   1  0.8080 15.692600 15.612700  3.663500
65   1  0.7332  1.454970  3.144680  4.540220
66   1  0.6473  4.611350 17.180200 14.468800
67   1  0.8477 11.833200 19.179200 25.612700
68   1  0.7265 10.495200  4.225190  2.476470
69   1  0.8716  4.562200 13.971200  2.337390
70   1  0.8268  2.285760 16.829700  3.047210
71   1  0.8532  7.326800 20.774900 13.055300
72   1  0.7875 10.876100  7.562780  3.505970
73   1  0.7739  1.783750 18.917300  7.449020
74   1  0.8731 10.295400  0.559633 15.059600
75   1  0.7151 10.757100  6.225150  9.157640
76   1  0.6956 14.221500 10.363000 18.071700
77   1  0.8062  5.819970 14.244300  8.786830
78   1  0.8003 15.074000 13.884800  7.297400
79   1  0.8620  9.091900 18.898600  3.724010
80   1  0.7497 12.730200  7.369540  7.221400
81   1  0.8468 10.465100 10.490100  6.397760
82   1  0.8072 16.637200 12.278200 10.695600
83   1  0.7342 10.247800  3.079090 11.926000
84   1  0.7473 13.754000  2.560560  0.643137
85   1  0.8458  0.805583  9.462600 13.763900
86   1  0.8830 12.714000 21.346400  2.934380
87   1  0.7718 10.611300  1.890240  6.745720
88   1  0.8360 13.185500 10.400800 10.053800
89   1  0.7803 12.540800 13.393600  2.899940
90   1  0.7739 14.099200 19.019800  8.479130
91   1  0.6789  5.873300 20.623900  5.573980
92   1  0.8528  9.315780 21.656500 27.725500
93   1  0.8811  9.113890 10.894400  2.034640
94   1  0.7507  1.999840 11.263800  8.636900
95   1  0.7014  5.022240 17.858900 11.066200
96   1  0.6193 13.220000 15.844100  9.511260
97   1  0.9011 13.049300  0.619774  9.344370
98   1  0.6855 15.681700  1.709110  5.859970
99   1  0.5741 15.188600  5.848090 14.729400
100  1  0.6712 13.132300  6.890410 13.108800
101  1  0.8246  2.062260 14.300100 15.277400
102  1  0.9519  4.823700  0.361397 16.646300
103  1  0.5775  3.248130 20.926000 10.573000
104  1  0.7039 16.349900  4.863100  6.792740
105  1  0.8018 16.648600  2.357990 10.764100
106  1  0.8196  2.514490  8.867130 17.370300
107  1  0.6737  8.988310 13.191400 20.897200
108  1  0.6951 10.328600 12.021900 12.360700
109  1  0.6131  1.610660  0.788791  7.215780
110  1  0.6591  3.604630  7.496720  9.824660
111  1  0.5402  5.129680  6.792750 13.263200
112  1  0.6108  9.568050 14.979900 10.503300
113  1  0.8112 10.340700 18.368300 11.892100
114  1  0.6911  8.998970 19.734400 22.262200
115  1  0.7696 14.427300  2.242960 14.021600
116  1  0.8708 16.528300  7.437470 10.282600
117  1  0.8378  8.589910 18.992700  8.185470
118  1  0.7633  7.549170  7.327870 17.388500
119  1  0.5547 11.704800  5.737560 16.089400
120  1  0.7369  9.403160  7.987750 13.299000
121  1  0.6231 16.513500 17.659300 20.657500
122  1  0.7818  3.648890 11.553300 12.601300
123  1  0.6227 14.544300  6.716580 17.635800
124  1  0.8390 14.231000 13.361000 14.484500
125  1  0.7950  3.214960 12.328800 18.614500
126  1  0.6740  7.289950 17.666900 17.033200
127  1  0.7497  9.976230 20.065600 17.670400
128  1  0.5526  6.964670  3.283540 11.802800
129  1  0.9168  2.118210  7.412870 21.323100
130  1  0.8318  5.318630 19.362900 20.590000
131  1  0.7538  5.021650 15.612600 27.110800
132  1  0.6642 12.095200 16.171000 18.613700
133  1  0.7377  1.395900 19.826000 21.804300
134  1  0.5631  7.897810  1.932300  8.359940
135  1  0.7294 12.748800 10.109900 14.987500
136  1  0.6580  7.557730 11.757000 15.378000
137  1  0.5845 10.916500 15.995700 15.546800
138  1  0.8061 11.837000 10.052600 20.112400
139  1  0.7533  3.250660 16.570500 19.347600
140  1  0.6586  7.027100  4.569450 20.063600
141  1  0.9149 15.317000  1.535940 20.810300
142  1  0.8019  6.500990  9.677890 20.245200
143  1  0.5874 11.358900 13.175800 17.788900
144  1  0.8117 13.655400  4.480470  9.844950
145  2 -0.5916  5.656490 18.646800 24.312400
146  2 -0.5923  0.449313 16.976900  5.423340
147  2 -0.6269 12.965400 20.947400 23.682600
148  2 -0.4332  2.699180  9.390240  0.319641
149  2 -0.5681  4.996880  2.516580 24.768000
150  2 -0.6798  3.265690 13.522900 28.398800
151  2 -0.6535  3.618510 20.957900  0.161284
152  2 -0.5639  8.826680  2.815110 23.800100
153  2 -0.6124 15.286000 12.945300  5.001400
154  2 -0.3219 15.579800 14.453200 25.661400
155  2 -0.4327  6.960430 13.286700  0.868902
156  2 -0.7790  9.403300 20.363200 25.305000
157  2 -0.4076  7.483300  6.719480 11.043800
158  2 -0.3943 13.090800  8.353060  1.142660
159  2 -0.6898 13.117500  2.128880 21.834400
160  2 -0.0567  7.232970 12.320700  5.827930
161  2 -0.5956 12.276800 14.895800 24.008900
162  2 -0.6053 15.388200  7.815340 26.672200
163  2 -0.6908 10.154000 17.769100 23.733900
164  2 -0.5872  9.531910  5.701610  4.471280
165  2 -0.6654 13.781900 12.243200 20.159500
166  2 -0.4573  2.636610 14.744600 25.229900
167  2 -0.3987 12.957700 21.573300 27.751100
168  2 -0.5725  2.978650  2.397280  9.736530
169  2 -0.6225 12.037500 15.901100  2.619580
170  2 -0.4058 15.950700  2.561000  2.269480
171  2 -0.4082  0.125777 13.075100 19.084700
172  2 -0.3897 16.232800 21.597000  3.539900
173  2 -0.4057  4.484520  3.204830  3.622540
174  2 -0.4922 14.050700 17.915100 25.844300
175  2 -0.3376  4.251210  4.500560 27.541700
176  2 -0.4473 14.847900 15.928300 19.352300
177  2 -0.5094  7.281740  5.692440 28.121000
178  2 -0.5001  6.039400  8.558490  1.330080
179  2 -0.6514  6.652480 20.820800 27.223300
180  2 -0.5160  2.306020  2.212670  1.046440
181  2 -0.3598 10.743700 12.129400 26.358600
182  2 -0.5732  0.100303  6.660570  4.855180
183  2 -0.4834  6.391320 13.296200 26.037300
184  2 -0.4958 14.709700 12.774000  0.506851
185  2 -0.5175  3.684840 15.288800  5.045240
186  2 -0.5486  2.405580  4.327090  6.988880
187  2 -0.6269  6.781740 20.005900  2.344120
188  2 -0.3373  0.103137 19.209500 27.759400
189  2 -0.7257 10.520600  1.822310  0.770631
190  2 -0.8396 10.787700  5.679540 25.217700
191  2 -0.5250  8.570610  3.853040 17.779300
192  2 -0.4440 15.418500 16.425100  1.036220
193  2  0.1037 15.923600 18.269000 16.447700
194  2 -0.7493  7.836680  6.032220 22.600700
195  2 -0.3927  8.989160  8.165230 19.800300
196  2 -0.5029  3.869900  5.974590 24.222200
197  2 -0.4725  1.929340  0.444258  4.225950
198  2 -0.7807  8.293060 14.710900 14.286100
199  2 -0.5197 15.655300  1.321430 26.611600
200  2 -0.4720  2.484950  4.883880 21.522000
201  2 -0.3861  4.237390  4.356890 18.100300
202  2 -0.5018  1.321360  4.114040 25.582100
203  2 -0.5997  7.889190 14.877800 22.899200
204  2 -0.6617  3.128040 17.179800 27.684200
205  2 -0.7766  6.981470 21.566700 21.831500
206  2 -0.6823 10.126200  2.738010 20.839800
207  2 -0.4739  7.621690  1.539390 15.200200
208  2 -0.4566  4.403050 19.754500 14.069100
209  2 -0.6959  5.378600  9.469440 26.227900
210  2 -0.4679  8.058290 14.729700 26.945400
211  2 -0.7549  2.798540 16.952200 22.157800
212  2 -0.5250  2.151740  0.518069 25.930800
213  2 -0.5799 12.103600  7.962050 22.299300
214  2 -0.5099  4.901710 18.877000 17.830600
215  2 -0.5228  6.490170  2.332330  1.042240
216  2 -0.6322 15.780100  3.283430 22.851900
217  2 -0.4363 14.105100 13.266800 17.487900
218  2 -0.4598 10.180100 13.153000  5.183600
219  2 -0.1900  6.224640 11.297800  3.960500
220  2 -0.5865 15.136800  4.350120 12.143900
221  2 -0.2356  1.591970 18.229700 11.216900
222  2 -0.6898  7.618240 16.713700  9.732550
223  2 -0.6262  1.507320  9.579060  6.337560
224  2 -0.2025  0.161963 15.819700  9.588590
225  2 -0.3170  8.477770  5.040180  7.834840
226  2 -0.5583  7.474690 13.078500 11.193600
227  2 -0.5404  0.918951  4.645750 14.594600
228  2 -0.2316 14.230100 19.285100 18.604800
229  2 -0.7772 16.248100 20.530100  7.224540
230  2 -0.4535  8.458440 13.620700  8.014600
231  2 -0.6299  0.066240  4.690310  9.549310
232  2  0.0645  7.113860  8.947930  7.441540
233  2 -0.6339  8.341780 17.488100  6.054700
234  2 -0.4910 12.780000  4.767580  6.046880
235  2 -0.6801 12.185100 12.767400  9.291780
236  2 -0.3012 13.733100  0.776959 18.372200
237  2 -0.5215 13.140100 19.148600  3.989920
238  2 -0.5478 14.660400 10.815700 12.418000
239  2 -0.5021  4.461950  1.460270  5.872550
240  2 -0.7223  6.842070 20.057000 10.337900
241  2 -0.4175  3.634720 16.584300  8.780330
242  2 -0.4296  5.007350  9.574540 10.834500
243  2 -0.4128 14.041700  4.683340  2.866060
244  2 -0.7530 13.141300  9.976340  7.282170
245  2 -0.6913 15.960800 11.781800  8.283160
246  2 -0.5739  8.563930  9.827350 27.954500
247  2 -0.6793 11.520800 17.829900  9.350360
248  2 -0.6457 15.697300  7.604870  7.859210
249  2 -0.6898 11.803900  9.351480 12.609400
250  2 -0.5926  7.438450  8.756570 15.116100
251  2 -0.5154 10.184800  8.053850  6.549150
252  2 -0.4811  8.415660 17.870400 28.380200
253  2 -0.3705 10.143400 20.968400  9.771210
254  2 -0.5896  5.369080 16.338200  1.972290
255  2 -0.4885 15.379000 21.297200 10.080000
256  2 -0.7638  9.617130  1.499320  4.231740
257  2 -0.0678  6.056830  6.450730  8.684480
258  2 -0.4815  3.707210 13.504800 10.697200
259  2 -0.0389 15.520500 20.311100 12.516500
260  2 -0.5270  4.813550  1.513470 12.758900
261  2 -0.5888  8.743950  8.882040  3.620330
262  2 -0.4602  0.247163  9.893250  2.889410
263  2 -0.7214 14.687900  2.500950  8.220010
264  2 -0.4754 13.162700  1.266230  4.965400
265  2 -0.2246  9.121210 10.122300  9.915380
266  2 -0.4438 14.117600 14.411900 11.923600
267  2 -0.3432  3.294430  7.302850 27.510000
268  2 -0.1532  5.589220  6.046910  6.035140
269  2 -0.6471  1.113030 14.740700  2.486870
270  2 -0.3615  8.457490 16.172600  3.029150
271  2 -0.6959 11.164000 16.783100 27.630000
272  2 -0.4712  5.928620  3.683940  9.311510
273  2 -0.7980 10.604200  6.106660  0.553992
274  2 -0.6507  2.265230  5.652410  2.382250
275  2 -0.1913 12.703600 20.555200 11.806500
276  2 -0.6116 14.482600 16.803900  6.521150
277  2 -0.4525  7.809240  2.018800 26.817900
278  2 -0.8182  4.227220 20.049900  7.781880
279  2 -0.6874 12.754500  2.437420 25.505100
280  2 -0.4438 10.925700 12.883500  0.606859
281  2 -0.6195  3.365080  9.311370 14.926800
282  2 -0.4008  4.193770 11.525300  7.267650
283  2 -0.3821 14.591900 19.905400  1.000960
284  2 -0.5235  3.675560 19.315200  4.216260
285  2 -0.6972 15.360200  4.761060 27.755300
286  2 -0.5021 11.977200 10.295200  3.280610
287  2 -0.7422  8.397920 20.952300  6.534690
288  2 -0.6120  3.311010 11.856700  2.784050
289  2 -0.4397  0.462312 11.091000 25.921600
290  2 -0.2806 13.899800 15.954400 16.180500
291  2 -0.6776  4.313680 12.885500 14.897100
292  2 -0.4940  0.771130 13.483300 12.818000
293  2 -0.4648  5.518730 13.209100 19.745400
294  2 -0.5786  3.524300 21.180800 22.750900
295  2 -0.5655 15.980100 16.622000 23.358800
296  2 -0.7813 15.394800  8.817610 16.044400
297  2 -0.4824  0.999897 12.094400 16.439500
298  2 -0.6275  9.907480 10.589600 22.830100
299  2 -0.3188  0.781805 15.961200 17.618300
300  2 -0.5035 15.880200 11.716200 22.701500
301  2 -0.6746  7.850780 19.556600 19.576600
302  2 -0.5317  4.698480  7.216600 17.656700
303  2 -0.6598 12.647600  9.672640 24.934400
304  2 -0.5509  5.643280 16.593400 20.537400
305  2 -0.6634 10.036900 11.145500 18.675100
306  2 -0.6206 15.552200 20.747400 21.894200
307  2 -0.6411  1.114090 19.397500 24.597400
308  2 -0.4919  1.324620  1.135850 20.676700
309  2 -0.6473 16.363300  6.746730 22.792600
310  2 -0.4128  2.988300 12.865400 22.330600
311  2 -0.5603 10.492200  0.884399 17.828500
312  2  0.0427 13.960500 17.813600 13.136700
313  2  0.0187  1.854980 20.355500 16.124300
314  2 -0.1488  2.376990  0.188451 17.634400
315  2 -0.7529 14.917800  4.436120 19.129500
316  2 -0.6275  8.692680  4.753040 14.562900
317  2 -0.3671  2.948340 15.795400 12.174000
318  2 -0.6910  4.349880 15.520500 17.246300
319  2  0.0413 16.511200 16.416900 11.758600
320  2 -0.3448  1.117280 19.053100 18.439200
321  2 -0.7937  8.948970 15.900800 19.022300
322  2 -0.4548  5.598320 10.657400 17.580800
323  2 -0.6038  7.218570 18.008700 13.093100
324  2  0.0802 15.880600 19.870400 14.521100
325  2 -0.3945  1.463690 13.904700  7.238500
326  2 -0.5469  7.662120 20.054800 15.693400
327  2 -0.5492 12.197800  6.273110 19.384300
328  2 -0.8042 11.312300 19.325900 20.110900
329  2 -0.7148 14.574700  8.750920 19.990900
330  2 -0.8040 11.686400 12.574400 14.903500
331  2 -0.6360 11.971000 15.863800 21.229100
332  2 -0.2001 12.847000 21.072200 14.212400
333  2 -0.7057 10.799200  2.829880  9.157580
334  2 -0.5843 12.728600  2.913540 16.445300
335  2 -0.0036 15.841700  0.240161 16.769800
336  2 -0.5797  9.702120  0.362528 12.581200
337  2 -0.6313  5.397920  1.755420 18.759500
338  2 -0.0818  1.492420 18.546700 13.771400
339  2 -0.7688 11.274900  5.369440 11.854400
340  2 -0.6043  2.332580  9.954440 19.920800
341  2 -0.5120 10.472300 18.798600 14.948000
342  2 -0.4328  4.360380  2.743600 15.598200
343  2 -0.2224  1.302530  2.410210 16.715100
344  2 -0.7185  2.544000  6.950440 12.576100
345  2 -0.4512  2.416970  9.078840 23.273800
346  2 -0.7268  1.562490  9.545370 11.190900
347  2 -0.5441  6.362080 11.228100 22.853600
348  2 -0.2868  0.620158  1.289770 13.434300
349  2 -0.4090 12.593400 16.567700 12.646300
350  2 -0.0529  6.130260  9.414370  5.696990
351  2 -0.6434 10.958500  8.568370 16.154500
352  2 -0.6158 13.558900  7.354630 10.174600
353  2 -0.0265 16.513100 16.485200 14.221700
354  2 -0.0382 13.581700 19.726000 16.852300
355  2 -0.5597 10.579700 19.991200  1.464090
356  2 -0.3591 11.976300 20.697300  7.000860
357  2 -0.5309  5.242350  7.224160 20.692800
358  2 -0.6025 15.797100  7.673800 12.884400
359  2 -0.6037  0.972045  6.485960 18.217800
360  2 -0.5741 13.162000  2.039980 11.549900

