Generated by pymatgen.io.lammps.data.LammpsData

320  atoms

  2  atom types

0.000000 16.864293  xlo xhi
0.000000 23.165087  ylo yhi
0.000000 24.472453  zlo zhi

Masses

1  208.9804
2   78.9600

Atoms

1    1  0.7649  3.676120 11.074400  9.465880
2    1  0.8904  2.761900  7.824100 23.368900
3    1  0.8415  2.337670 19.536200 11.805800
4    1  0.7664  1.998870  1.010330 19.265400
5    1  0.7461  5.524950 11.827000 14.199100
6    1  0.7740  7.223180 13.772600 23.190200
7    1  0.7034  4.049940  0.072100 11.605800
8    1  0.7050  1.773160 19.021200 18.939200
9    1  0.7784  8.128320 12.550000 11.003000
10   1  0.7427  9.090560 10.308400  1.396710
11   1  0.7266  9.430440 22.530700  8.497220
12   1  0.7825 12.781400 20.688800 23.593000
13   1  0.6971 11.508100 13.406500  7.522040
14   1  0.7550 11.098500  7.878730 22.990100
15   1  0.7887 14.821700 22.257900 11.057700
16   1  0.7332 -0.072021 21.447600 22.285500
17   1  0.7836  3.406230 22.856700  1.125160
18   1  0.8303  1.590640  3.603790 12.968500
19   1  0.8310  4.731500 11.216500  3.036780
20   1  0.8780  1.232680  8.535390 13.651100
21   1  0.8528  5.438530  0.220775  4.158650
22   1  0.8675 11.517700  0.494738 18.784600
23   1  0.8453 10.197100  8.048240  4.247060
24   1  0.7552  7.523170 12.423200 17.110900
25   1  0.7089  7.508770  5.104720  3.255310
26   1  0.7922 10.930000  1.810720 13.142400
27   1  0.6221 12.227800 13.901700  3.755780
28   1  0.7917 10.493300 13.086400 14.379400
29   1  0.7963  0.118330  0.627769  0.591811
30   1  0.8431 16.523000 18.223300 14.373200
31   1  0.7501 16.516800 11.058600  1.796560
32   1  0.7547 14.904700  9.360710 12.461000
33   1  0.8537  4.839040  5.247960  9.850500
34   1  0.8220  5.051960  2.149970 19.165000
35   1  0.7338  2.348880 16.651000  9.260910
36   1  0.8064  2.130600 14.065200 20.548900
37   1  0.6984  7.063400  4.795800  6.740590
38   1  0.7896  7.079430  9.154310 22.869900
39   1  0.8281  7.274170 17.025700  9.813310
40   1  0.7532  4.872280 18.079400 22.429200
41   1  0.6304  8.913460  1.791450  5.651120
42   1  0.9117  7.599020  6.538380 20.192000
43   1  0.8406 10.974900 18.096200 12.575400
44   1  0.7467  8.843950 18.894600 21.344200
45   1  0.7380  0.669042  8.809220  4.939180
46   1  0.7691 14.886600  4.946460 19.525400
47   1  0.7341 16.607700 19.741400  8.914400
48   1  0.7908 16.109700 15.902300 17.686200
49   1  0.7807 13.936900  9.007140  2.855040
50   1  0.7916  1.271950  5.440760 16.669600
51   1  0.8759  1.934360 17.862200  5.637030
52   1  0.5898  2.758500 12.569900 17.493800
53   1  0.7795  3.985600  4.055720  5.144770
54   1  0.7357  4.592100  4.073390 15.480100
55   1  0.9471  5.773300 16.310600  3.868880
56   1  0.7598  4.960990 18.865900 16.380000
57   1  0.6796  9.463250 10.987200  6.944360
58   1  0.8414  5.351270  7.960800 16.859800
59   1  0.7400  9.766320 19.594600  3.516100
60   1  0.7972  8.712890 19.472500 16.020600
61   1  0.7758 13.611400 10.191000  6.269110
62   1  0.7648 11.121800  8.530320 15.235600
63   1  0.6342 12.284000 16.978900  2.043820
64   1  0.8482 12.032900 19.850200 18.821100
65   1  0.7673 16.522600  5.186720  7.259280
66   1  0.6466 14.970600  1.429460 21.486300
67   1  0.7231  4.068870 14.095800  6.738000
68   1  0.6185  0.395269 10.369700 17.880800
69   1  0.7776  5.176060  0.897892  8.116110
70   1  0.7241  2.799140 21.383600 21.349300
71   1  0.6628  7.465630 13.844400  7.716010
72   1  0.6671  4.295290 16.006800 17.758400
73   1  0.7208 12.236700  2.953530  8.896420
74   1  0.8325  9.918550  3.537670 21.281500
75   1  0.8177  9.532030 16.875900  6.074200
76   1  0.8589 10.746800 15.417100 17.324100
77   1  0.8339 12.945000  4.581660  4.953290
78   1  0.8241 13.888800  1.523860 15.711700
79   1  0.7015  0.017929 13.684100  8.814660
80   1  0.6084 16.129000 12.511500 15.517000
81   1  0.6682  2.320250  7.572790  7.750970
82   1  0.7646  3.854450  6.207220 19.463800
83   1  0.7860  0.915585  1.001370  9.219710
84   1  0.7672  3.163140  0.774259 15.648500
85   1  0.8349  6.645990  8.847970  8.197820
86   1  0.8312  4.601830 10.837100 19.620700
87   1  0.7826  6.552090 19.838200  5.612230
88   1  0.7135  6.827150 20.957000 19.246700
89   1  0.8278 13.402300  6.941540  8.434790
90   1  0.5341 13.632100 11.935600 17.042900
91   1  0.8606 14.845300  0.231366  6.788830
92   1  0.6838 16.106100  0.625904 18.326800
93   1  0.7363  1.348580 12.292400  5.588100
94   1  0.7034 13.835000  8.673670 18.467100
95   1  0.8512  1.948360 21.660600  4.628890
96   1  0.7630 15.170900 19.791800 19.785000
97   1  0.7658  0.658396  6.603920 10.477300
98   1  0.8583  5.094670  7.315550  2.998800
99   1  0.7269  1.534900 13.334100 11.977700
100  1  0.8443  2.839290 19.251800  1.223370
101  1  0.8414  7.789570  8.443810 13.702100
102  1  0.8343  5.908940  4.999320 22.998700
103  1  0.8648  6.669470 20.989700 13.510800
104  1  0.7840  7.067430 21.378100  1.575710
105  1  0.7674 12.183000 11.496900 11.152600
106  1  0.7440 10.410800  5.374480  1.435950
107  1  0.8089  8.513910  0.020283 16.933000
108  1  0.7171  8.589380 17.007700 24.438200
109  1  0.6479 15.201600 10.856200  9.851000
110  1  0.7786 14.694200  6.702500 23.045100
111  1  0.7966 13.057700 19.631400 15.606800
112  1  0.7551 15.342800 19.908400  2.058020
113  1  0.9314  1.478560  3.439340 22.380300
114  1  0.8237 13.498600  5.060900 14.036600
115  1  0.7288  2.931170 11.742200 24.121300
116  1  0.7521  2.336980 15.349600 15.576300
117  1  0.8437  1.446700  3.725950  2.941850
118  1  0.8303  7.034470  2.551050 13.359200
119  1  0.7032  2.982330 14.654100  0.704017
120  1  0.8253  4.506120 14.585500 11.635800
121  1  0.7438  8.401550 22.457500 23.142600
122  1  0.7708  8.191940  3.546300 16.533000
123  1  0.7619  8.514010 13.824500  3.269170
124  1  0.7511  7.734840 15.986800 15.204300
125  1  0.7654 12.918200  3.214890 23.703700
126  1  0.8482 10.085300  5.170580 11.143300
127  1  0.7555 16.417600 15.647000  2.730100
128  1  0.7783 13.695700 14.637200 12.512300
129  2 -0.5516 14.833600  1.501520  9.152040
130  2 -0.6848  0.215371  3.108420 19.975300
131  2 -0.5011  0.073897 17.130900  7.139130
132  2  0.0239 15.504500 14.299100 22.935300
133  2 -0.5499  6.873880  3.772550  9.163570
134  2 -0.5555  2.011390  2.767600  0.463652
135  2 -0.4776  7.639020 15.698300 12.433100
136  2 -0.6496  4.712110 13.588200 19.067400
137  2 -0.4967 10.446200  5.415140  8.592010
138  2 -0.5909  7.395240  4.181990 20.697700
139  2 -0.1290 11.682200 17.419900  9.783150
140  2 -0.1119 10.970400 14.544200 19.878000
141  2 -0.3241 14.072400  4.946600 10.863800
142  2 -0.6719 15.376300  3.896410 23.015100
143  2 -0.5676 13.980400 13.675900  9.994670
144  2 -0.3424 15.845300  8.970380 20.885900
145  2 -0.3737  9.755550  8.207940  7.212030
146  2 -0.4850  0.066489  4.011940 10.797100
147  2 -0.2752  1.789770  1.701130  6.535580
148  2 -0.7032  6.577730 21.357500 16.377000
149  2 -0.3391 11.241300  2.771900  1.063900
150  2 -0.5542  7.197610  5.053580 14.165500
151  2 -0.6941  7.839920 21.880200  3.908170
152  2 -0.4504 11.036500 20.872000 13.968800
153  2 -0.4261 13.301300  9.072770 23.273600
154  2 -0.6566 12.465700 10.898700 13.982200
155  2 -0.2047 13.436700 19.366300  4.949800
156  2 -0.6823  9.687660 21.623900 18.522100
157  2 -0.7970  1.738370 12.527200  2.308730
158  2 -0.4767 12.825000  6.518690 17.066500
159  2 -0.5635  0.756588 18.306800  3.157580
160  2 -0.5962 15.535900 19.151200 16.944800
161  2 -0.5887  0.609108 10.407100 11.228000
162  2 -0.5619  4.075340 13.932600 22.642300
163  2 -0.5444  4.356990 21.855400  6.175690
164  2  0.0162 11.192800 13.606100 22.315500
165  2 -0.4069  5.537840  9.798690 10.842300
166  2 -0.4551  9.248430 10.891500 23.132700
167  2 -0.4787  6.705020  0.213446 10.908300
168  2 -0.3502 16.464200 16.976900 20.174600
169  2 -0.6539 12.141600 10.656100  8.550720
170  2 -0.5764  9.879870 11.967800 16.867900
171  2 -0.5152 11.590700  0.476019  6.788130
172  2 -0.3606 14.494300 16.542700  0.423683
173  2 -0.7646 16.640400 15.243900 15.140600
174  2 -0.7246 12.059200  5.455120 21.839700
175  2 -0.2269  0.870870 20.672000 13.896400
176  2 -0.4631 15.131800 19.457600 22.833900
177  2 -0.3215 -0.094450  7.273680  0.541339
178  2 -0.3102 14.689000 21.945200 14.119800
179  2 -0.3675  1.011880 16.262100  0.018596
180  2 -0.6686 15.241100 12.246400 12.655000
181  2 -0.4388  5.807140  0.913002  1.272240
182  2 -0.7976  6.468230  1.881000 16.398200
183  2 -0.4722  7.306360 10.202800  3.669070
184  2 -0.4768  6.981770  8.997650 19.401300
185  2 -0.3705  8.587330  2.395780  2.904660
186  2 -0.6842 12.625200 21.518700 17.357400
187  2 -0.6269  5.847240 13.706900  4.667610
188  2 -0.5059  8.224910 15.074000 17.822100
189  2 -0.6839 14.831100 22.545200 23.978600
190  2 -0.4543 16.665600  4.278130 14.820900
191  2 -0.5369 13.905000 12.945700  6.148690
192  2 -0.6849 12.377500 14.688400 15.160800
193  2 -0.5455  3.971170 17.627100  3.355080
194  2 -0.4915  3.021510  5.994580 14.107600
195  2 -0.5898  2.950710  1.029190  3.730540
196  2 -0.4824 16.353500  1.999870 16.279200
197  2 -0.8107  6.013950 13.710100  9.696910
198  2 -0.6313  1.913600 12.454000 14.632200
199  2 -0.5442  3.372290  3.117030  9.228130
200  2 -0.4695  2.655650 19.840100 16.484800
201  2 -0.6446 11.037600 10.522800  4.666510
202  2 -0.6536  5.111960  7.652330 21.554000
203  2 -0.0711 12.780400  1.311280  3.267440
204  2 -0.5412 10.939300 20.919400 21.476300
205  2 -0.4915 14.722200 16.256800  4.269140
206  2 -0.4773  1.778200  8.166850 16.138700
207  2 -0.3144 15.725700  2.594010  2.097730
208  2 -0.6670 13.803700 22.281300 20.091100
209  2 -0.6825 13.856300  4.461790  7.531770
210  2 -0.8382  0.723950 21.284300 19.321800
211  2 -0.5266  5.426630 10.803500  6.805880
212  2 -0.5185  2.446800  9.084170 19.651300
213  2 -0.4717  6.840670 21.485200  8.395600
214  2 -0.4484  1.908770 18.822000 22.912400
215  2 -0.5360  9.360710 10.527300  9.883280
216  2 -0.0126 11.733200 10.912700 21.007600
217  2 -0.6597  0.832280 21.637300 10.790100
218  2 -0.6876  8.565530  6.476890 22.583500
219  2 -0.7318  0.785962 11.385500  7.825510
220  2  0.0172 14.981200 12.225000 22.260900
221  2 -0.3255 16.107900  2.775200  5.634630
222  2 -0.6012 13.559700  2.738460 18.619400
223  2 -0.4803  3.178690  9.403600  5.399510
224  2 -0.7276 15.444700  9.546330 16.180500
225  2 -0.5018  5.041420  4.019560  2.567180
226  2 -0.7594  4.184410  2.832720 13.211800
227  2 -0.6744  4.299930 20.977900  2.938550
228  2 -0.5101  3.019980 17.566200 14.319400
229  2 -0.4556  7.198510  0.515488 20.408100
230  2 -0.7359  6.054240  5.402030 17.898800
231  2 -0.7076  7.432800 19.857100 23.600300
232  2 -0.5778  7.199250 18.556400 13.970300
233  2 -0.6888 11.245300  8.033710  1.684960
234  2 -0.4513 10.399600  8.355860 12.733400
235  2 -0.5746  7.014420 18.561300  3.177170
236  2 -0.7039 10.155900 17.338500 14.976000
237  2 -0.4067 13.462400  5.082840  1.413520
238  2 -0.6293 11.017200  5.022550 13.828000
239  2 -0.5218  9.864650 14.471200  0.697923
240  2 -0.9130  1.626480 14.956400 17.938100
241  2 -0.8198 16.267900  7.913370  8.388290
242  2 -0.5817  3.843900  3.951070 20.897400
243  2 -0.8845  2.649630 14.153700  9.436770
244  2 -0.4105  7.371540 16.653300 20.880500
245  2 -0.5882  2.944220  7.381540 10.599400
246  2 -0.6167  7.578510  7.335050  1.264610
247  2 -0.5100  2.580350 19.657500  8.515640
248  2 -0.5569  5.899060 15.954300  0.654239
249  2 -0.2227  6.423970  6.930440 11.903300
250  2 -0.3164  8.964570  2.766920 23.961200
251  2 -0.2964  8.742640 19.932500 11.121900
252  2 -0.6867 10.562600 19.131900  0.776676
253  2 -0.4935 13.353500  7.816480 11.070700
254  2 -0.4197  1.324020  5.992510 21.714700
255  2 -0.0731 13.143100 16.457000  8.840270
256  2  0.0361 12.802000 13.643100 23.221700
257  2 -0.5444  6.689080  7.386470  4.981120
258  2 -0.5497 15.842700  7.058600 13.304900
259  2 -0.7124  1.174810 21.230300  0.869746
260  2 -0.4872  4.760220 17.498000 11.047100
261  2 -0.7907 15.404400 10.571800  4.281740
262  2 -0.3810  4.709310  8.473210 14.474000
263  2 -0.2905  4.388750  0.826524 22.261700
264  2 -0.5406  4.071940 21.244000 13.504100
265  2 -0.5835  6.263350 12.552600  1.193060
266  2 -0.7603  8.223100 12.076300 13.549100
267  2 -0.1875 12.243800 21.026100  4.784590
268  2 -0.5646  8.586960  0.376118 14.045200
269  2 -0.4368  1.396630  8.854450  2.471210
270  2 -0.5481 10.777900 14.084800 11.525600
271  2 -0.5108 16.543800 21.809400  3.514620
272  2 -0.4793 13.217000 16.958100 17.989800
273  2 -0.4196  1.454430  0.749198 13.563200
274  2 -0.4774  4.025310  6.239200  0.380899
275  2 -0.4611  3.486010 11.551200 12.264900
276  2 -0.5261  4.636090  9.435450  0.511265
277  2 -0.5919  9.155900  2.494360 11.514200
278  2 -0.1218 11.307800  0.246890  3.054250
279  2 -0.7179  4.727460 14.819900 14.215000
280  2 -0.6928  9.628590 16.776900  3.153750
281  2 -0.4087 14.152300  2.407600 12.980900
282  2 -0.5332 10.917700  0.991430 21.531900
283  2 -0.5203  9.723460 15.848800  8.695770
284  2 -0.3901 12.176700 11.833400  1.512450
285  2 -0.4392 12.204500 23.175700 10.952900
286  2 -0.8014  1.228880  0.480501 22.085400
287  2 -0.6378  0.104271 17.915800 11.525700
288  2 -0.4651  0.405613 11.147200 23.488800
289  2 -0.5582  2.139850  4.330700  6.872000
290  2 -0.5912  4.273720 22.268600 18.836900
291  2 -0.5131  4.098990 16.969800  7.216300
292  2 -0.7298  4.801300 10.441800 17.058000
293  2 -0.8192  6.058950  2.277380  5.914820
294  2 -0.6511 11.197800  1.803470 16.355300
295  2 -0.8453  9.390550 14.216800  5.646080
296  2 -0.6219  7.088200 18.143300 17.721300
297  2 -0.6920 10.092500  5.184750  4.331220
298  2 -0.4117  9.739130  5.248780 18.753100
299  2 -0.2638 13.162500 21.046600  8.166070
300  2 -0.0997 12.851700 13.790900 19.708900
301  2 -0.4109 15.533500  5.820540  4.171070
302  2 -0.4423  0.084793  6.765080 18.668600
303  2 -0.5946  2.069760 14.960100  4.954200
304  2 -0.3823 16.030700 13.323800 19.927000
305  2 -0.5043  2.788000  6.603620  4.159470
306  2 -0.7734  2.862010  2.859470 17.653000
307  2 -0.6055  0.199672 22.221200  7.252490
308  2 -0.5739  3.600560 16.659500 20.145200
309  2 -0.6117  5.095610  6.740150  7.312780
310  2 -0.5617  4.942900 10.953000 22.218100
311  2 -0.5990  6.802520 16.678200  6.206230
312  2 -0.6427  4.737610 20.671400 22.767000
313  2 -0.2483  7.989930  6.922490 10.156700
314  2 -0.4870  7.965740  9.041150 16.362900
315  2 -0.3819 10.063900 19.273000  7.203480
316  2 -0.4755  9.947770 18.034000 19.001100
317  2 -0.6074 12.825700  7.501730  5.187150
318  2 -0.3049 11.311500 10.041600 19.295600
319  2 -0.5155 13.877600 18.664800 13.101500
320  2 -0.2137 12.554500 17.913600 21.689800

