Generated by pymatgen.io.lammps.data.LammpsData

360  atoms

  2  atom types

0.000000 16.677463  xlo xhi
0.000000 21.699897  ylo yhi
0.000000 28.493178  zlo zhi

Masses

1  208.9804
2   78.9600

Atoms

1    1  0.8192 14.787900 12.943100 21.384700
2    1  0.7174  3.870960 19.956600 19.094100
3    1  0.8835  0.605403  5.869150 23.505100
4    1  0.7083  3.297450 11.858400 19.073500
5    1  0.7741  9.189200 11.649400 23.268900
6    1  0.8112  8.192680 17.470300 19.300300
7    1  0.7926  8.532090 21.454100 20.291900
8    1  0.7531  4.645350  2.220410 22.002400
9    1  0.5700  7.817540  7.843810 21.284200
10   1  0.6728  7.943800  9.064500 17.885200
11   1  0.7880  7.008760 15.971900 22.702500
12   1  0.8248 15.213200 16.343900 23.782600
13   1  0.7632  5.906030 20.036300 23.110600
14   1  0.6523  6.192640  5.261610 21.597900
15   1  0.6482 10.793800  5.661210 21.270200
16   1  0.8003 13.844600  7.575950 20.686700
17   1  0.7769 11.906000 14.584600 19.269800
18   1  0.7781  1.402420 18.671600 21.891900
19   1  0.7464  8.857030 18.253100 24.437700
20   1  0.7697 11.747600  1.762670 20.488800
21   1  0.8979 14.901900  7.818330 26.179300
22   1  0.7863 12.487100 10.623000 23.649800
23   1  0.8635 12.399400 17.976500 21.053000
24   1  0.6823  2.352690  0.858654 26.104100
25   1  0.7856  1.785680 14.084100 28.432200
26   1  0.7300  3.562550 19.098600 26.423900
27   1  0.7029  4.058580  9.562850 27.307900
28   1  0.8757  0.223206 11.330600 25.050900
29   1  0.8097  2.254830 16.345200 24.964900
30   1  0.8412  7.758490 15.171100 27.027300
31   1  0.6924 15.275300 21.409100 26.771900
32   1  0.8537  5.110810  5.856530 25.712100
33   1  0.7423  5.384100  9.692780 22.486800
34   1  0.8031  9.009610 11.121300 28.465600
35   1  0.7459 10.688800 14.820500 23.969700
36   1  0.9296 12.003900 19.100100 26.688900
37   1  0.8162  6.499500  1.894110 25.906900
38   1  0.7472 10.355800  2.993230 26.830100
39   1  0.7410  7.441770  7.459510  0.497509
40   1  0.7728 11.917700  6.539160 24.524400
41   1  0.7104 13.533900 13.858200 27.185200
42   1  0.8524 15.805500 16.886600 27.958900
43   1  0.9066  9.695910 17.484600  2.115960
44   1  0.7951 15.631400  2.228850 23.758200
45   1  0.7258 13.591700  4.217480 27.255500
46   1  0.7217 12.330700 10.572400 28.273500
47   1  0.8312 11.758900  1.777600  2.490720
48   1  0.7790  2.016250  4.843930 27.958300
49   1  0.8567  3.103990 15.094300  4.824340
50   1  0.7745  5.956680 19.294600  5.072110
51   1  0.9202 15.998600 10.540100  1.301120
52   1  0.6875  5.759210 12.599800 25.873300
53   1  0.7679  4.478710 16.567600  1.287400
54   1  0.7702  6.697650 14.707900  2.503850
55   1  0.8549  0.754013  1.352130  2.461570
56   1  0.8115  5.480290  1.771710  6.749550
57   1  0.6531  4.794550  7.580270  2.824060
58   1  0.6790  5.233950 12.116600  1.292410
59   1  0.7086 14.912200 13.107000  4.648790
60   1  0.8064 13.341500 20.195800  2.886570
61   1  0.8410  4.880370  0.073820  1.610410
62   1  0.7379  6.648350  3.553830  0.927462
63   1  0.8230 11.431200  7.011800  2.271200
64   1  0.6418 10.916000 13.715500  0.792730
65   1  0.8648  1.384680 19.444400  2.878800
66   1  0.7488 13.817700  0.503464  6.027660
67   1  0.8436  9.123460  0.433623  4.713660
68   1  0.7172 12.606400  6.056090  5.639870
69   1  0.6596  8.169870  7.304930  3.766730
70   1  0.7823  2.364280 12.263700  3.815440
71   1  0.7860  2.095840  1.126470  7.619170
72   1  0.8484 15.833800  5.030440  2.157180
73   1  0.6719  1.090930 17.056500 11.184700
74   1  0.8016  6.318200 19.129600  8.660190
75   1  0.7700  1.634230 10.325200  7.306250
76   1  0.7245  0.454494 13.739500 10.493400
77   1  0.8651  5.130820 17.273400 11.614300
78   1  0.8692  8.752100 17.321400  6.502520
79   1  0.7978  1.632580 19.007100  7.513930
80   1  0.8481  2.241920  7.708240  4.263850
81   1  0.8167  6.425830 10.907800  6.121820
82   1  0.9360  4.814010 12.621200 10.994500
83   1  0.6986 12.069200  0.465282 11.575500
84   1  0.7569 11.487900 19.420200  7.094110
85   1  0.8013  3.876580  5.098770  7.213710
86   1  0.7430  8.018190  3.909120  4.576000
87   1  0.8170  9.407350  8.441980  7.401490
88   1  0.8011 12.248800 11.291400  8.338040
89   1  0.7968 12.047900 15.259000  4.396010
90   1  0.7290 13.215200 18.859700  9.476990
91   1  0.7986  8.950630  0.127903  9.048050
92   1  0.6780 12.395700  2.823090  8.560600
93   1  0.7294 12.662100 10.277500  4.621110
94   1  0.7297 15.764400 14.499800  7.809950
95   1  0.7644 15.758300 21.355000 10.192500
96   1  0.7919 14.401300  8.394790  9.111800
97   1  0.8152 12.108000 14.612600 10.061700
98   1  0.8267  3.737110 21.168500 10.874400
99   1  0.6896  3.076850  5.060220 14.390300
100  1  0.8212 14.526100  7.561310 13.912200
101  1  0.8568  1.714560 14.521700 14.273400
102  1  0.8258  7.686620  2.033110 13.627200
103  1  0.8958  1.886960  1.791310 13.688300
104  1  0.9763 15.977500  4.162760  6.693910
105  1  0.6708  1.158950  7.597550 10.006400
106  1  0.7647  6.828860 14.206500 14.856000
107  1  0.7973  7.536940 17.606500 15.703100
108  1  0.6846 11.489400 15.537700 13.556000
109  1  0.6871  3.429020  4.259840 10.930300
110  1  0.7609  5.252280  8.822080  8.340490
111  1  0.8087  4.989550  8.968040 11.943900
112  1  0.6826  8.957140 13.081400 11.832700
113  1  0.8300  9.322260 16.573000 10.686000
114  1  0.8765 13.697100 19.128900 13.775700
115  1  0.8639 13.451800  1.486450 14.025000
116  1  0.9591  6.757210  5.325950 10.394500
117  1  0.7047 11.389200  5.947100  9.153610
118  1  0.8387 10.504100  8.905500 12.261100
119  1  0.8662 11.366900  5.119340 12.900800
120  1  0.7967 15.237500  5.104430 10.685000
121  1  0.7680  0.045708 15.897700 19.474600
122  1  0.8574  2.522010 17.949700 14.929500
123  1  0.8332 16.207700  8.220070 17.452900
124  1  0.7487 16.064200 12.786000 16.465700
125  1  0.8322  3.166210 13.586800 22.134000
126  1  0.8385  5.542530 21.130300 14.794400
127  1  0.7762 14.308900 21.027800 19.133700
128  1  0.8347  2.132980  5.344330 19.550200
129  1  0.8385  4.508320  9.661740 16.306600
130  1  0.7496  4.147710 15.185200 18.278600
131  1  0.8059  8.307050 12.872100 19.189100
132  1  0.7062  9.513190 21.619000 15.597800
133  1  0.7284  1.642840  0.827816 20.145900
134  1  0.8306  7.339210  5.463110 15.093800
135  1  0.7650 10.935900  7.162280 17.925300
136  1  0.8162 10.724600 11.421500 14.445300
137  1  0.7297 10.570800 15.550400 16.365200
138  1  0.8654 14.079400 12.382600 13.335000
139  1  0.7255  6.042120  0.970739 18.201000
140  1  0.7130 10.609500  2.232830 17.106400
141  1  0.7298 15.595300  3.137200 19.418900
142  1  0.7883 13.419600 10.701800 17.752600
143  1  0.8793 12.003900 18.938300 17.236200
144  1  0.8050 13.382200  4.333510 16.991600
145  2 -0.5988  1.662960 17.414800  0.539891
146  2 -0.4389  1.849240 18.109000  5.172690
147  2 -0.4943 15.670900  6.431970 28.271900
148  2 -0.4146  0.280539  9.649530 27.220000
149  2 -0.5113  4.123870 18.205300 23.197800
150  2 -0.6157  4.591090 15.192100 27.311200
151  2 -0.4063 16.548200 20.762800  4.664280
152  2 -0.5902  4.463950  3.294640 24.409300
153  2 -0.5905  2.147900 11.342800  1.024090
154  2 -0.4953  3.193730 13.003800 24.789900
155  2 -0.8207  8.067300 13.388500  0.203361
156  2 -0.7254 11.522200 21.421000  4.373430
157  2 -0.5738  5.289190  2.971500  9.103290
158  2 -0.6578  4.562030  6.825880 28.415300
159  2 -0.4922  9.918060  5.671810  0.578124
160  2 -0.6065  9.979500  9.146460  1.468210
161  2 -0.4741 13.196400 16.902300 26.199000
162  2 -0.5266 12.092300 16.332700  0.972077
163  2 -0.3834  7.368480  0.640586  0.182860
164  2 -0.8074  6.357880  5.280190  3.028380
165  2 -0.6684 13.803300 10.385900 26.184800
166  2 -0.5255 16.060800 12.728700 27.747600
167  2 -0.5295 12.491700  1.311990 27.869500
168  2 -0.5704 12.780800  4.507290  2.478340
169  2 -0.6015 14.651900 19.157300 28.413300
170  2 -0.5318  1.109120  3.658070 25.100700
171  2 -0.2433 16.383200 10.210000 22.622800
172  2 -0.6131 16.611200 15.330400 25.769000
173  2 -0.5889  5.591650 20.521000 25.744800
174  2 -0.4797 10.178000 16.619800 26.852900
175  2 -0.6049  4.420700  2.083520 27.686900
176  2 -0.3356  2.842230  9.865180 24.655600
177  2 -0.5267  6.653040  9.989970 25.047000
178  2 -0.7355  8.226930 13.872700 24.529600
179  2 -0.4712  6.289390 17.071300 25.189000
180  2 -0.3457 13.744200 21.537500 24.642500
181  2 -0.6097  7.287530  4.510720 26.656200
182  2 -0.4977 12.306600  6.979270 27.296400
183  2 -0.5776 12.346700 12.358400 21.248900
184  2 -0.6459 10.610000 12.916700 26.460400
185  2 -0.1475 16.030900 16.881600  2.818480
186  2 -0.6101 16.244000  2.636040  0.089022
187  2 -0.0418  7.133790 19.107500 28.374400
188  2 -0.3318  9.475060 20.070400 26.376200
189  2 -0.3885  1.931310  6.912880 25.903600
190  2 -0.3719  9.991830  9.256430 25.286300
191  2 -0.6667 14.682800  5.500320 25.127700
192  2 -0.6443  1.563560 21.539800  0.303500
193  2 -0.6095  2.387750 16.057600 21.549700
194  2 -0.5967  2.671810 21.521800 22.840400
195  2 -0.2020  1.844320  7.658540 22.108100
196  2 -0.3707  2.547920 10.703300 21.188600
197  2 -0.6372  0.785961 18.587000 25.724200
198  2 -0.5701  6.808300 14.899500 18.028000
199  2 -0.4127 15.197600 19.266900 22.366800
200  2 -0.5791  1.553030  3.458270 21.716500
201  2 -0.3058  2.321780  8.556130 18.642100
202  2 -0.6045  5.112520  8.474410 20.133300
203  2 -0.4374  4.754250 15.149100 23.900400
204  2 -0.6021  9.233690 19.208500 21.344800
205  2 -0.5015  7.318730  2.584500 22.903700
206  2 -0.4358  4.305680  6.792790 23.270200
207  2 -0.4441  7.467540  6.886510 23.994500
208  2 -0.5789  9.280880 10.562400 21.067700
209  2 -0.5682 13.488900 13.815800 24.532900
210  2 -0.5276 11.388600 17.777100 23.584600
211  2 -0.3629 11.365500 20.310800  0.775230
212  2 -0.4835 11.888400  3.590120 24.376200
213  2 -0.5812 14.027200  8.408150 23.263800
214  2 -0.5302 11.912400  9.300410 19.626200
215  2 -0.2158 10.172500  0.457232 24.524800
216  2 -0.5308 14.135800  3.683040 21.977900
217  2 -0.5114 16.075300 15.190600 13.070900
218  2 -0.5159  9.915570 14.393200  8.853890
219  2 -0.6525  3.292480  8.371300  6.588510
220  2 -0.4934  1.668790 11.182000 10.523800
221  2 -0.5885  3.146920 14.335500 12.069200
222  2 -0.4164  6.650190 16.364900  9.493440
223  2 -0.6323 15.782600 17.954800  9.375480
224  2 -0.5270  6.384520 21.499300 10.007700
225  2 -0.3833  6.522740  5.209050  7.007660
226  2 -0.3478  4.244790 11.234700 13.332600
227  2 -0.7737  4.117990  6.450680  9.529660
228  2 -0.3890 10.097700 20.112900 11.345400
229  2 -0.6627  9.930770 18.186100  8.671630
230  2 -0.7607  8.675770 20.132800  6.755110
231  2 -0.6725 12.744500  7.517220 11.563500
232  2 -0.5299  9.843900 10.417500  9.432760
233  2 -0.6861 13.006300 12.944300  6.398070
234  2 -0.6185 14.478100 13.794800 10.857900
235  2 -0.3226 11.100100 18.717200 13.471200
236  2 -0.7323 12.864800  4.047740 11.008300
237  2 -0.4690  0.219359  7.990120  7.565940
238  2 -0.5460 15.285800 10.950500  8.238860
239  2 -0.4972  1.572030  1.597980 10.214100
240  2 -0.6997  4.274600 20.965900  6.999640
241  2 -0.4348  1.743330 15.769800  8.357940
242  2 -0.4499  5.340850 17.248800  6.082030
243  2 -0.4835 16.487400  5.615960  4.628040
244  2 -0.4584  3.904880 12.216600  6.910660
245  2 -0.3104  6.196620 14.039100  5.032980
246  2 -0.3006 10.335500 11.617000  4.084050
247  2 -0.8456 13.004400 21.579500  8.949590
248  2 -0.5121  1.766120  3.373340  6.084020
249  2 -0.6421  6.631560  7.955240  6.287260
250  2 -0.0635  7.133580 13.428800  7.628030
251  2 -0.1440  9.473600 11.997800  5.975780
252  2 -0.3734 12.779100 16.186000  7.194450
253  2 -0.5457 16.090400  1.044290  6.959970
254  2 -0.5233  7.477890 17.159400  4.291370
255  2 -0.6532  5.193820  6.116000 12.471200
256  2 -0.4348  8.672040  5.766570  8.294410
257  2 -0.2679 15.868400 15.783500  5.580570
258  2 -0.3414 14.007300 18.815400  6.088740
259  2 -0.6566 12.384500 21.095700 15.488300
260  2 -0.5866  8.331930  1.877540  6.828890
261  2 -0.3885 14.385800  7.820630  4.788120
262  2 -0.7784 11.967200  8.076780  7.883980
263  2 -0.6185 14.861200 21.353600 12.620200
264  2 -0.7034 14.418600  5.520470  8.016300
265  2 -0.4579  0.250221 14.035300  2.534770
266  2 -0.1579  5.105730 13.834900  8.454290
267  2 -0.4472  1.596070  7.669900  1.767570
268  2 -0.6298  4.188810  9.959190  4.327400
269  2 -0.9018  3.773480 14.097600  2.186590
270  2 -0.3049  8.077490 11.350800  3.193880
271  2 -0.3291  8.628110 20.229600  2.529610
272  2 -0.5643  5.944050  1.163090  4.163750
273  2 -0.7188 10.533500  8.041750  4.828050
274  2 -0.7481  6.516150  9.883290  0.609619
275  2 -0.5262  9.436940 14.955100  3.135440
276  2 -0.2381 14.004000 17.464600  3.477900
277  2 -0.4941  7.385890 17.153500  0.847300
278  2 -0.4659  2.654170  0.402604  4.019470
279  2 -0.5559  9.478820  3.146630  2.087810
280  2 -0.7150 13.978400 11.884000  2.057460
281  2 -0.5776  1.236320 13.762400  5.874170
282  2 -0.6057  4.397170 19.052300  2.182700
283  2 -0.5432 11.067100 17.818100  4.853540
284  2 -0.5745 14.893300  1.925380  3.344620
285  2 -0.4695 13.854200  8.861070  1.275920
286  2 -0.4428  0.343266  9.798800  4.671400
287  2 -0.5967 11.301200  2.713830  5.222980
288  2 -0.4477  2.700870  3.611390  2.265870
289  2 -0.5275  0.572084 13.692400 23.045500
290  2 -0.5049  4.716550 17.836700 16.975100
291  2 -0.3357  1.520740 10.174500 16.222500
292  2 -0.6316  0.376599 13.336200 19.098000
293  2 -0.6125  5.995490 12.745400 20.697900
294  2 -0.7931  5.619920 21.386900 20.796100
295  2 -0.5777 15.838100  0.715337 21.075800
296  2 -0.4026  4.755680  6.288900 16.678800
297  2 -0.4719  8.373080  5.304230 18.205300
298  2 -0.5058 10.241300 10.165500 16.575700
299  2 -0.5300  5.684190 17.568100 20.169100
300  2 -0.6625 13.819800 15.693500 21.770900
301  2 -0.5188  5.189150  3.295420 19.209000
302  2 -0.6124  9.441380  2.485520 19.855000
303  2 -0.5936 10.440600  7.942250 22.348500
304  2 -0.7640 10.866100 16.955800 18.953200
305  2 -0.6776 10.022100 18.100700 15.832300
306  2 -0.5634  0.913152 19.531900 19.697700
307  2 -0.3551 12.393000 21.039200 21.616100
308  2 -0.5557  1.276000  3.050100 18.269200
309  2 -0.5641 16.027100  5.999240 20.385900
310  2 -0.5935 15.277500 10.025200 19.194600
311  2 -0.4270 14.608800 18.286300 18.615700
312  2 -0.7051 13.370500  1.593530 17.542600
313  2 -0.5708  1.415330 15.621300 16.728800
314  2 -0.5806  4.705160 19.414600 13.016100
315  2 -0.2349 15.818400  1.069540 15.734700
316  2 -0.4707  3.841190 12.943100 16.313800
317  2 -0.5695  4.350440 16.041700 14.166100
318  2 -0.6444  9.018770 15.105700 21.022700
319  2 -0.0923 16.054600 20.325700 16.004400
320  2 -0.6591  7.640100  2.308390 16.192100
321  2 -0.5115  6.605670 11.419800 16.978500
322  2 -0.4065  7.246510  8.300710 15.207200
323  2 -0.6314  6.246260 10.495500 10.219500
324  2 -0.4370 13.437800 16.811100 15.525800
325  2 -0.5736  7.669040 17.082700 12.981100
326  2 -0.5740  8.311450  4.336350 12.693200
327  2 -0.8055 12.288300  5.269830 18.987500
328  2 -0.6203 12.759700 13.059900 16.196800
329  2 -0.4926 14.242600 14.704600 18.137300
330  2 -0.1014  0.055173 18.477600 16.673100
331  2 -0.6813  6.909690 20.103000 17.016700
332  2 -0.5374 10.895800  4.330040 15.539700
333  2 -0.5373 14.158600  4.005950 14.268500
334  2 -0.5454 13.101000  9.944690 14.285600
335  2 -0.4454  3.135360 20.752500 15.937600
336  2 -0.6735 10.491900 20.708200 18.693000
337  2 -0.3839  7.923990 20.978600 13.107000
338  2 -0.6030  4.819120  1.322490 12.868600
339  2 -0.4945  0.250231  6.059190 16.173700
340  2 -0.4237  0.650868 12.037000 14.307400
341  2 -0.7115  3.731980 18.834300  9.518220
342  2 -0.6468 10.749500  1.945520 13.580000
343  2 -0.4750  3.741670  2.398270 15.552900
344  2 -0.5281  0.717829  4.805700  8.770550
345  2 -0.3932  2.483740  8.009500 13.919100
346  2 -0.6239  6.600080 14.079200 11.975100
347  2 -0.7461  9.265540 13.692400 16.028600
348  2 -0.4040  9.623770  3.266600  9.831940
349  2 -0.3718  7.990610 10.114000 13.462900
350  2 -0.4641  7.722440  7.509090 10.882100
351  2 -0.4520 10.736800  7.365560 14.357200
352  2 -0.8536 11.575600 13.217000 12.619600
353  2 -0.7051 11.916600 16.880700 11.192400
354  2 -0.4829  0.264135 18.452100 13.095100
355  2 -0.4178 15.248500  2.469050  9.215380
356  2 -0.4321 15.987300  9.011200 12.453800
357  2 -0.6260 13.643400  7.500150 16.572300
358  2 -0.4208 12.894000 10.765200 11.191600
359  2 -0.4394  1.627040 21.261700 12.479400
360  2 -0.5212  0.701523  3.558610 11.935100

