Generated by pymatgen.io.lammps.data.LammpsData

320  atoms

  2  atom types

0.000000 24.637781  xlo xhi
0.000000 17.058433  ylo yhi
0.000000 27.370788  zlo zhi

Masses

1  208.9804
2   78.9600

Atoms

1    1  0.7360 22.060600  1.694020  0.635821
2    1  0.6836 -1.480400 18.605000 14.464300
3    1  0.7028 21.303300  9.992330  0.712402
4    1  0.7243 -1.933160  9.890580 14.790800
5    1  0.7110  9.727390 18.465300  0.881507
6    1  0.7104 10.394900 18.286800 14.305800
7    1  0.7507  9.743840 10.388500  1.021650
8    1  0.7872 10.746200  9.878160 14.700200
9    1  0.7922  4.361870  5.630480 10.589000
10   1  0.7309  3.642590  5.641700 24.079700
11   1  0.7654  4.261090 14.275300 10.958400
12   1  0.7468  3.367350 14.483300 24.442000
13   1  0.7043 16.689800  5.520810 10.315900
14   1  0.7600 15.899200  5.896890 23.892200
15   1  0.7481 16.444300 14.287200 10.560800
16   1  0.8018 15.756500 14.233300 23.673800
17   1  0.6822  3.973010  5.707560  6.358890
18   1  0.7263  3.269510  5.792980 20.330100
19   1  0.7107  4.228780 14.129500  6.472580
20   1  0.6386  3.935390 14.338800 20.078900
21   1  0.7699 16.757600  5.824850  6.208630
22   1  0.6775 15.333600  5.316220 19.579900
23   1  0.7504 16.908900 14.103000  6.113450
24   1  0.7751 15.829100 14.273600 20.045600
25   1  0.7722 -1.940700  1.770900 10.011200
26   1  0.7678 22.121200  1.564390 24.257400
27   1  0.6612 -1.680090 10.086000 10.560200
28   1  0.7647 21.572500 10.023400 23.765600
29   1  0.7413 10.397500  1.507810  9.984380
30   1  0.7830  9.780240  1.409570 24.166900
31   1  0.7385 10.132700  9.788430  9.919040
32   1  0.7399  9.923340  9.769880 23.969900
33   1  0.6775 21.578800  5.929620  0.838134
34   1  0.7437 -1.416950  5.538390 14.540300
35   1  0.7828 21.842400 14.428600  0.517653
36   1  0.7563 -1.905820 14.257700 14.516500
37   1  0.7329  9.715400  5.784210  0.886684
38   1  0.7676 10.682900  5.637130 14.487800
39   1  0.7186  9.725540 14.378700  0.970620
40   1  0.7237 10.345500 14.042600 14.332000
41   1  0.7973 -1.784070  5.904800 10.248600
42   1  0.8240 22.152900  5.815860 24.072700
43   1  0.7014 -2.013050 14.385900 10.295500
44   1  0.8167 22.133000 14.173200 24.160200
45   1  0.7384 10.384300  5.545360 10.331500
46   1  0.6789  9.844680  5.834450 23.812700
47   1  0.6942 10.272600 14.122400 10.266500
48   1  0.7964  9.879910 14.162300 23.870800
49   1  0.7023  4.455900 18.704400  6.136400
50   1  0.7391  3.452770  1.686020 19.875600
51   1  0.7048  4.390050  9.956960  5.961350
52   1  0.6967  3.251660  9.833300 20.049000
53   1  0.7932 16.436300  1.708300  6.081200
54   1  0.6970 15.603400 18.366300 19.620500
55   1  0.7766 16.829200 10.006500  6.386310
56   1  0.7244 15.456800  9.352660 19.542100
57   1  0.7572  4.130770  1.349400 10.662700
58   1  0.7359  3.653870  1.779620 24.235700
59   1  0.8087  4.296850  9.672840 10.724800
60   1  0.7463  3.572210  9.866700 24.174600
61   1  0.7108 16.579500 18.648600 10.195900
62   1  0.7365 15.675100  1.652360 24.057400
63   1  0.7719 16.737900 10.048300 10.373400
64   1  0.7688 15.790600 10.193200 23.897400
65   1  0.8216 -0.009266  8.047740 26.372900
66   1  0.8342  1.140210  7.778320 12.445500
67   1  0.8031  0.088815 16.637800 26.170200
68   1  0.7849  1.171390 16.401600 12.176600
69   1  0.7984 12.936700  7.951020 26.711700
70   1  0.7825 13.385400  7.700480 12.022500
71   1  0.7872 13.163200 16.119100 26.571900
72   1  0.7967 13.512000 16.284300 12.031800
73   1  0.7875  7.091530  7.609380 26.015600
74   1  0.7725  7.487760  7.773230 12.533200
75   1  0.7922  7.093620 16.423000 25.938800
76   1  0.7240  7.449990 16.100600 12.643000
77   1  0.7193 18.838300  7.583400 25.890600
78   1  0.7566 20.064500  7.848190 12.561800
79   1  0.8049 19.068900 16.762400 25.771700
80   1  0.7874 19.597600 16.589200 12.573200
81   1  0.8248  0.315510  3.867780 26.272200
82   1  0.7898  1.194990  3.617150 12.153600
83   1  0.8357 -0.018322 12.069900 26.432400
84   1  0.8047  0.909342 11.749100 12.333100
85   1  0.7498 12.374200  3.932060 26.257500
86   1  0.7851 13.255600  3.485180 11.788000
87   1  0.7660 12.811400 12.105200 26.493900
88   1  0.7509 13.104800 11.725400 11.997500
89   1  0.8380  6.790960  3.539550 25.866800
90   1  0.8043  7.601300  3.503890 12.489100
91   1  0.8310  7.027130 11.952900 25.774700
92   1  0.7352  7.625520 12.096100 12.606700
93   1  0.7572 19.305900  3.547810 25.888600
94   1  0.7698 19.688900  3.511670 12.427800
95   1  0.7872 18.840100 12.358200 25.554300
96   1  0.7540 19.955500 12.012100 12.936100
97   1  0.8665  1.100110  7.589880  8.365840
98   1  0.8419  0.680991  7.861090 22.276300
99   1  0.7796  1.751430 16.439100  8.352130
100  1  0.7722  1.041400 16.520100 22.312800
101  1  0.8051 13.811300  7.559970  8.181570
102  1  0.7592 12.986200  8.091270 22.098300
103  1  0.8024 13.528200 16.256000  7.678620
104  1  0.8432 12.959600 16.120400 21.948100
105  1  0.8080  6.877970  7.629820  8.527760
106  1  0.7642  6.544630  7.492070 22.044700
107  1  0.8486  7.112270 16.502600  8.304100
108  1  0.7598  6.804330 16.604900 21.571900
109  1  0.8134 19.585300  8.115710  8.557200
110  1  0.7368 19.012800  7.985130 21.418100
111  1  0.7524 19.522400 16.580900  8.421820
112  1  0.7846 18.767100 16.365900 21.579500
113  1  0.7862  1.307700  3.672140  8.215280
114  1  0.7846  0.829653  3.735530 22.496300
115  1  0.7542  1.229370 11.930200  8.571930
116  1  0.8765  0.355888 12.101400 22.177700
117  1  0.8006 13.367900  3.605530  7.665580
118  1  0.7854 12.828200  3.136230 22.275200
119  1  0.7536 14.005300 11.976100  7.966840
120  1  0.8012 13.133800 11.989100 22.221900
121  1  0.8424  7.173150  3.350660  8.153580
122  1  0.8069  6.439000  3.392700 22.207600
123  1  0.8046  6.963880 12.094000  8.462070
124  1  0.7016  6.503100 11.780000 21.513300
125  1  0.8059 19.300500  3.862780  8.199690
126  1  0.7829 18.870700  3.260840 21.354000
127  1  0.7757 19.864100 12.357300  8.636620
128  1  0.7685 18.916400 12.191800 21.543300
129  2 -0.7786  7.270040  5.246620 10.444300
130  2 -0.8760  6.751680  5.594580 24.079700
131  2 -0.8082  7.207490 14.317900 10.396800
132  2 -0.7028  6.774660 14.230800 23.869300
133  2 -0.7801 19.790200  5.836280 10.307300
134  2 -0.7199 19.269900  5.399240 23.593500
135  2 -0.7900 19.462100 14.231100 10.719900
136  2 -0.7666 18.998500 14.423300 23.524300
137  2 -0.8299  1.357560  5.742430 10.231400
138  2 -0.8131  0.591502  5.819420 24.329300
139  2 -0.7822  1.305330 14.132400 10.549100
140  2 -0.7596  0.144096 14.105500 24.213400
141  2 -0.8535 13.312900  5.700210  9.989850
142  2 -0.7561 13.096700  5.771030 24.345800
143  2 -0.7971 13.622900 14.111500  9.857700
144  2 -0.7851 12.823800 14.045000 24.279800
145  2 -0.0705 20.002800  3.707960  3.856490
146  2 -0.0628 -0.131482  3.804730 18.016900
147  2 -0.0998 20.132700 12.015700  3.571360
148  2 -0.1031 -0.585219 11.966700 17.491300
149  2 -0.0906  8.023420  3.921900  3.719640
150  2 -0.1258 11.730300  3.193350 17.071100
151  2 -0.0712  7.905350 12.282700  4.149420
152  2 -0.0721 11.987000 12.006500 17.464800
153  2 -0.0603 20.325200  8.233360  4.089680
154  2 -0.0900 -0.347221  7.679510 17.899800
155  2 -0.0661 20.596400 16.435700  3.688570
156  2 -0.1121 -0.739761 16.095100 17.319100
157  2 -0.0660  7.688180  7.750770  3.886820
158  2 -0.1261 12.047500  7.472850 17.464800
159  2 -0.1578  9.520860 16.138100  3.606240
160  2 -0.0778 12.516900 15.947600 17.210900
161  2 -0.7712  7.430310  1.482960 10.303300
162  2 -0.8555  6.804230 18.466100 23.959200
163  2 -0.8102  7.217850  9.822830 10.419000
164  2 -0.7913  6.901400  9.776420 23.894900
165  2 -0.8283 19.778100  1.781550 10.291700
166  2 -0.8000 18.886800  1.581680 23.870700
167  2 -0.8328 19.583200  9.782150 10.742100
168  2 -0.8378 18.855100 10.124900 23.522000
169  2 -0.8280  1.013050 18.387100 10.159300
170  2 -0.8248  0.549523  1.665100 24.402300
171  2 -0.8273  1.443890  9.580770 10.390900
172  2 -0.7160  0.171135 10.020900 24.266000
173  2 -0.7965 13.226400 18.325900  9.631770
174  2 -0.7453 12.650600  1.175920 24.303800
175  2 -0.8139 13.811400  9.759280  9.925640
176  2 -0.8047 12.800500 10.073000 24.372400
177  2 -0.0790  6.008400  3.909960  3.083460
178  2 -0.1094  1.938000  4.009490 17.345200
179  2 -0.1336  5.784030 12.411800  3.334090
180  2 -0.0417  1.536080 11.856600 16.846300
181  2 -0.0588 18.046300  3.576830  3.110780
182  2 -0.0949 13.918700  3.172290 16.589100
183  2 -0.0890 18.033100 11.986700  3.096860
184  2 -0.0798 14.131100 12.027600 16.957300
185  2 -0.1028  5.754770  8.042900  3.004890
186  2 -0.1161  1.917560  7.760730 17.233000
187  2 -0.0429  7.237930 16.057800  3.637930
188  2 -0.0626  1.262980 15.962000 16.947700
189  2 -0.1478 18.114800  8.029600  3.685080
190  2 -0.1492 14.130900  7.432450 16.744700
191  2 -0.0734 18.514400 16.362100  3.206980
192  2 -0.0730 14.766800 15.878700 16.735000
193  2 -0.5172  1.154540  5.708970  6.482300
194  2 -0.4161  0.227707  5.844770 20.557200
195  2 -0.4120  1.451380 14.189900  6.297660
196  2 -0.3717  0.920813 14.492600 20.056200
197  2 -0.4962 13.886700  5.746880  6.015320
198  2 -0.3550 12.457200  5.476560 20.052100
199  2 -0.4180 14.300700 13.747000  5.576510
200  2 -0.4728 13.084500 14.088200 20.218700
201  2 -0.4693  6.940090  5.595090  6.560960
202  2 -0.3992  6.185780  5.662700 20.020700
203  2 -0.3866  7.097490 14.519400  6.330900
204  2 -0.4012  7.015730 14.329400 19.629200
205  2 -0.4596 19.363600  5.716970  6.286970
206  2 -0.3765 18.651200  5.633900 19.298700
207  2 -0.4093 19.927800 14.314900  6.568610
208  2 -0.4262 18.683300 14.760200 19.412100
209  2 -0.9006 -1.615740  7.633250 12.487900
210  2 -0.9157 22.003900  7.818740 25.697100
211  2 -0.8299 -1.964350 16.487500 12.227700
212  2 -0.9389 22.050600 16.427100 25.945800
213  2 -0.8419 10.255800  7.878460 12.473800
214  2 -0.8662  9.938700  8.125020 26.458600
215  2 -0.8921 10.205800 16.131100 12.151300
216  2 -0.8502 10.046900 16.314400 26.078500
217  2 -0.8605 -1.707880  3.848780 12.166700
218  2 -0.9498 22.272900  3.703330 26.146200
219  2 -0.9311 -1.831880 12.076500 12.701900
220  2 -0.8888 21.828000 12.109700 25.939600
221  2 -0.9004 10.329000  3.670720 12.323600
222  2 -0.9082  9.583490  3.637020 25.937800
223  2 -0.8896 10.421500 11.616300 12.256900
224  2 -0.8417  9.746670 12.017800 25.977900
225  2 -0.4429  0.258853  1.641610  0.832753
226  2 -0.4125  1.384050 18.710600 14.419800
227  2 -0.4777 -0.511835 10.145300  0.973635
228  2 -0.4644  0.785804  9.938010 14.421900
229  2 -0.4220 12.680100  1.160770  1.045870
230  2 -0.4193 13.335000 18.319300 13.887100
231  2 -0.4474 12.503300 10.347700  1.352450
232  2 -0.4156 13.416300  9.828470 14.434700
233  2 -0.4161  6.755100 18.266700  0.638481
234  2 -0.4041  7.634080 18.296400 14.966000
235  2 -0.4135  6.819600 10.227300  0.545868
236  2 -0.3765  8.007950  9.942090 14.957100
237  2 -0.4645 19.333000  1.822530  0.733056
238  2 -0.4241 20.101300  1.713090 14.655100
239  2 -0.3624 18.515900  9.767090  0.693874
240  2 -0.4129 19.783900 10.009300 15.037700
241  2 -0.8503  3.980250  7.788370  8.673820
242  2 -0.9634  3.489980  7.894270 22.258000
243  2 -0.8839  4.455400 16.445300  8.379360
244  2 -0.8820  3.783480 16.591800 22.267300
245  2 -0.8875 16.617300  8.021860  8.158800
246  2 -0.8978 15.632600  7.998500 21.744900
247  2 -0.8234 16.301800 16.452600  7.797330
248  2 -0.9215 15.870100 16.320800 21.810700
249  2 -0.8711  4.165960  3.473680  8.556430
250  2 -0.9731  3.713790  3.576030 21.967800
251  2 -0.8346  4.294280 12.123700  8.701330
252  2 -0.8190  3.312400 12.197200 22.240700
253  2 -0.9379 16.366200  3.615310  8.200710
254  2 -0.8729 15.569900  3.590320 21.926100
255  2 -0.8859 16.937500 12.092200  8.481730
256  2 -0.9218 15.887400 12.305000 21.968700
257  2 -0.4780  7.038310  5.495990  0.442208
258  2 -0.4056  7.587460  5.748300 14.506200
259  2 -0.4872  7.183030 14.123700  0.355135
260  2 -0.5001  7.728370 13.690000 14.797500
261  2 -0.4588 18.730300  5.608250  0.517023
262  2 -0.3915 20.317500  5.699500 14.882000
263  2 -0.4500 19.211500 14.645500  0.400196
264  2 -0.4327 19.820800 14.457100 14.537300
265  2 -0.3780 -0.108324  6.280310  1.372600
266  2 -0.4076  1.365840  5.458090 14.401900
267  2 -0.5014 -0.178576 14.376000  0.695362
268  2 -0.3576  0.865760 14.175900 14.561100
269  2 -0.4419 12.604700  5.644400  1.229220
270  2 -0.4440 13.292900  5.435740 13.952900
271  2 -0.3255 12.856300 14.187000  1.870040
272  2 -0.4605 13.103700 14.144800 13.885700
273  2 -0.3872 -2.380700  4.100680  8.008690
274  2 -0.4038 22.144300  3.621620 22.167500
275  2 -0.4774 -1.774450 12.135600  8.243400
276  2 -0.4857 22.188600 12.498300 21.903300
277  2 -0.4638 10.077800  3.232280  7.939140
278  2 -0.4280  9.950290  3.545750 21.936500
279  2 -0.3986 10.017500 12.010900  7.895030
280  2 -0.4003  9.999380 12.060400 21.850500
281  2 -0.4605 -1.833490  7.989600  8.299560
282  2 -0.4257 -2.467520  7.785540 21.857600
283  2 -0.3772 -1.781010 16.567600  8.115920
284  2 -0.4015 22.585800 16.616000 22.184100
285  2 -0.4322  9.725210  7.539990  8.141140
286  2 -0.3837  9.702690  7.765900 21.486000
287  2 -0.3178 10.061100 16.300100  7.491740
288  2 -0.4523 10.110400 16.356900 22.006900
289  2 -0.4140  7.253970 18.352200  6.080110
290  2 -0.4216  6.307360 18.898300 19.702700
291  2 -0.4491  7.051100  9.820140  6.499510
292  2 -0.3973  6.285280  9.796450 19.505000
293  2 -0.4619 19.188300  1.436280  6.414200
294  2 -0.4587 18.407400  1.621350 19.240100
295  2 -0.3960 19.742100 10.171100  6.468970
296  2 -0.4115 18.507800 10.249400 19.176700
297  2 -0.4551  1.570770  1.431440  6.204180
298  2 -0.3888  0.573548  1.789350 20.222000
299  2 -0.3793  1.618370  9.822420  5.873830
300  2 -0.4877  0.465552 10.030100 20.486600
301  2 -0.4299 13.740800  1.662350  5.596740
302  2 -0.4507 12.678600 18.029900 20.217600
303  2 -0.3979 14.068300 10.028900  5.854300
304  2 -0.4174 12.450300  9.886880 20.160200
305  2 -0.4484  4.141360  3.644260 12.546800
306  2 -0.4234  3.534230  3.599040 26.402100
307  2 -0.4259  3.841580 11.899900 12.719100
308  2 -0.4297  3.113240 12.095300 26.102500
309  2 -0.4485 16.363600  3.448800 12.400100
310  2 -0.3873 15.494500  3.940960 26.136000
311  2 -0.2973 16.402100 12.501600 13.009800
312  2 -0.4780 16.079900 12.230100 25.982500
313  2 -0.4484  4.355830  7.782930 12.757900
314  2 -0.4142  3.234750  7.449750 26.144900
315  2 -0.5369  3.999400 16.478400 12.631800
316  2 -0.3916  3.350650 16.662900 26.388800
317  2 -0.4231 16.423500  7.780650 12.388600
318  2 -0.4855 15.903700  8.101500 25.893400
319  2 -0.5127 16.557000 16.670000 12.191000
320  2 -0.5142 16.062200 16.054100 25.756700

