Generated by pymatgen.io.lammps.data.LammpsData

216  atoms

  2  atom types

0.000000 18.096178  xlo xhi
0.000000 18.140645  ylo yhi
0.000000 18.233787  zlo zhi

Masses

1  208.9804
2   78.9600

Atoms

1    1  0.7720 -0.158533 17.434600  1.239220
2    1  0.7720  0.434996 17.557700  7.288660
3    1  0.7747 17.959200 18.004100 12.981500
4    1  0.7081 17.897700  5.072650  0.649270
5    1  0.7245 -0.159870  6.039030  6.877440
6    1  0.7949 17.816300  5.940380 12.706800
7    1  0.7720  0.678665 11.358400 18.588600
8    1  0.8597 18.004000 12.237200  6.752780
9    1  0.8168 18.204100 11.568100 12.379400
10   1  0.6806  5.789130 -0.077515  0.690110
11   1  0.8010  5.958780 17.311300  6.881190
12   1  0.6822  7.001670  0.249412 13.981600
13   1  0.8103  5.920910  5.985880  0.738867
14   1  0.8216  6.213500  5.584700  6.789020
15   1  0.7627  6.598630  6.573430 13.175900
16   1  0.9286  6.086240 12.169700  0.578520
17   1  0.6913  5.212530 11.342400  6.232240
18   1  0.7185  5.984650 11.850500 13.168700
19   1  0.6658 11.866900 17.678900  0.449836
20   1  0.7192 12.155200  0.359115  6.576320
21   1  0.7956 12.321200 17.736000 12.761100
22   1  0.8833 12.178500  5.801950  0.762892
23   1  0.7285 11.982600  6.030330  7.308310
24   1  0.8020 12.185900  5.887140 12.917400
25   1  0.6834 12.397300 11.330700 17.915400
26   1  0.7258 12.606900 11.554700  5.996140
27   1  0.8112 11.904100 11.847400 12.224800
28   1  0.7953 18.156700  2.452080  3.827160
29   1  0.8130 -0.002460  2.666640  9.794300
30   1  0.6429 17.643800  3.160230 16.223000
31   1  0.6987 17.819100  8.500270  3.123600
32   1  0.7733 18.277800  8.405980  9.595040
33   1  0.7607 -0.329138  8.543250 15.361700
34   1  0.7243  0.407390 14.740300  4.333070
35   1  0.8734 -0.034299 15.061100 10.090700
36   1  0.7250 18.079100 15.119300 16.286000
37   1  0.7643  5.801160  2.320450  3.397990
38   1  0.8053  6.816290  2.101400 10.618000
39   1  0.7262  6.195450  2.568560 16.693000
40   1  0.7042  5.693810  8.781440  3.623360
41   1  0.7647  7.156130  9.173420 10.812500
42   1  0.7288  5.882980  9.100880 15.658700
43   1  0.8574  6.060590 14.636100  3.311400
44   1  0.7731  6.030140 14.956700  9.568610
45   1  0.8246  6.225620 14.853700 15.867200
46   1  0.7979 12.210200  2.991290  3.744020
47   1  0.8172 12.123600  2.407740 10.390100
48   1  0.8650 11.486000  2.620060 16.062100
49   1  0.7562 12.217600  9.156120  2.891090
50   1  0.7034 12.033700  9.030250  9.959350
51   1  0.7815 12.047100  8.801290 15.578300
52   1  0.7135 12.399800 14.622100  3.496010
53   1  0.8540 12.206700 14.620900  9.481500
54   1  0.7944 12.511400 15.059300 15.701700
55   1  0.8000  2.911670 18.277200  3.660050
56   1  0.7419  3.336280 18.161600  9.606350
57   1  0.9539  3.439130 18.099500 15.979000
58   1  0.7744  2.780970  5.899180  3.990020
59   1  0.8145  3.214230  5.392000 10.070900
60   1  0.9017  2.947640  5.326430 15.709500
61   1  0.7104  2.621350 12.015700  3.679850
62   1  0.7866  3.121870 12.141400  9.662170
63   1  0.8101  3.319780 12.079900 15.699100
64   1  0.8509  9.200300 17.742300  4.307110
65   1  0.7973  9.201670 17.818100  9.959360
66   1  0.6133  9.896410 17.572000 16.017300
67   1  0.7245  8.933510  5.798670  4.128380
68   1  0.7961  9.021460  5.922440 10.014500
69   1  0.7299  8.549920  5.902540 15.626700
70   1  0.7731  9.439390 11.663000  3.271780
71   1  0.5253  9.528720 11.496700  8.004240
72   1  0.6728  9.259140 12.056700 15.078200
73   1  0.7701 14.971900 -0.285708  3.799510
74   1  0.7802 15.213100 17.881900 10.408900
75   1  0.7436 15.324000 17.498900 16.125500
76   1  0.8373 15.450500  5.544450  3.486650
77   1  0.7714 14.909500  5.714530 10.121000
78   1  0.7893 14.743300  5.144310 16.280200
79   1  0.8340 15.248300 11.385400  3.230440
80   1  0.8518 15.421000 12.427800 10.044800
81   1  0.7617 15.309800 11.653900 15.514500
82   1  0.7794  3.432320  2.396530  0.644372
83   1  0.8694  2.961540  2.849260  6.966000
84   1  0.7884  4.132030  2.517190 13.498900
85   1  0.7682  3.061860  9.439440  1.020670
86   1  0.7009  2.534690  8.776290  6.766650
87   1  0.8171  3.034800  9.362040 13.224400
88   1  0.7605  3.644040 14.976300  0.484490
89   1  0.7183  2.811230 14.717100  6.982100
90   1  0.8867  3.436350 15.038700 12.902600
91   1  0.8709  8.876940  3.046910  1.270740
92   1  0.7515  8.818540  2.813880  7.726290
93   1  0.8375  9.690830  2.868240 12.905600
94   1  0.7078  9.162180  8.976680  0.321328
95   1  0.7137  8.901870  8.558530  6.609540
96   1  0.7119 10.089900  8.505510 12.394900
97   1  0.7298  9.134990 15.141500  1.031760
98   1  0.7257  8.909710 13.992600  6.616160
99   1  0.7219  8.961690 14.755800 12.107600
100  1  0.6891 14.899100  2.231000  1.120840
101  1  0.7663 15.345700  3.002260  7.249950
102  1  0.6864 15.115600  2.135860 13.260000
103  1  0.8358 15.350400  8.965990  0.313257
104  1  0.8057 15.031200  8.591100  7.458710
105  1  0.8161 15.337400  9.230110 12.997600
106  1  0.8658 15.335500 14.465600  0.418466
107  1  0.7803 14.985700 15.001000  6.797640
108  1  0.8281 15.650800 14.516300 12.869500
109  2 -0.8322  2.989730 17.740600  0.369905
110  2 -0.7792  3.215720 18.212700  6.465790
111  2 -0.6317  3.234410 17.733700 13.020700
112  2 -0.6325  3.108960  5.397920  0.340608
113  2 -0.7701  3.022070  5.500800  6.746910
114  2 -0.5688  3.238610  5.563610 12.903800
115  2 -0.8185  3.457340 12.070500  0.278584
116  2 -0.8765  2.666840 11.858100  6.748130
117  2 -0.8078  3.147470 12.251200 12.946900
118  2 -0.7535  8.717320 18.413600  1.919410
119  2 -0.7350  9.342170 17.834200  6.916730
120  2 -0.8133  9.620770 17.439600 12.884900
121  2 -0.7179  9.028600  5.503130  0.632610
122  2 -0.7973  9.031090  5.982190  7.259070
123  2 -0.8799  9.185800  5.786840 13.046600
124  2 -0.7343  9.298880 11.625400  0.595676
125  2 -0.8077  8.044490 11.635600  5.617190
126  2 -0.7962  9.250470 11.094300 11.994500
127  2 -0.8088 15.348000 17.230600  0.908890
128  2 -0.6810 15.332900 -0.193760  6.853180
129  2 -0.9103 15.383500 17.526400 12.984900
130  2 -0.7905 14.881000  5.743340  0.561788
131  2 -0.7763 15.417500  5.802500  6.410440
132  2 -0.7396 15.062700  5.455390 13.280000
133  2 -0.7767 15.977400 11.862300  0.350534
134  2 -0.6729 15.138500 11.349300  6.537160
135  2 -0.8870 15.542100 11.781500 12.621300
136  2 -0.7487  2.805050  2.891420  4.332590
137  2 -0.6890  4.011160  2.282290 10.316400
138  2 -0.8523  3.378700  2.354100 16.215300
139  2 -0.8864  2.838250  8.748720  3.816260
140  2 -0.5958  3.175060  8.788370  9.432900
141  2 -0.6888  3.377060  8.976460 16.014900
142  2 -0.7420  3.192280 15.239200  4.170820
143  2 -0.8003  2.773500 14.882100 10.013300
144  2 -0.6944  3.203670 15.229300 15.665800
145  2 -0.7432  9.484430  3.254080  3.830110
146  2 -0.9305  9.435330  2.477930 10.441100
147  2 -0.8320  9.116240  2.725290 15.876600
148  2 -0.7797  8.947040  9.125730  3.383410
149  2 -0.8571  9.601640  8.392340  9.203370
150  2 -0.8421  9.117900  9.152690 15.017200
151  2 -0.7689  8.962230 14.902500  3.693920
152  2 -0.7647  8.602840 14.869100  9.220480
153  2 -0.7618  9.513550 14.749400 16.056300
154  2 -0.8371 14.938400  2.876520  3.881870
155  2 -0.8068 15.054800  3.140820  9.856710
156  2 -0.8116 14.770400  2.648140 16.460500
157  2 -0.7941 15.093700  8.673750  2.657030
158  2 -0.7712 15.314200  8.738830 10.348700
159  2 -0.8162 14.992100  8.472110 15.809000
160  2 -0.6693 15.279200 14.866900  3.467620
161  2 -0.7664 15.162900 15.058400  9.720740
162  2 -0.8300 15.155400 14.834400 15.701100
163  2 -0.7893 17.777900 17.937000  3.952310
164  2 -0.8375  0.093455 18.204400 10.094200
165  2 -0.6734  0.350945 18.389300 16.027300
166  2 -0.8480 18.067500  5.478670  3.121820
167  2 -0.8368  0.061059  5.674570  9.651810
168  2 -0.7768  0.656473  6.082540 15.073800
169  2 -0.7961 18.031300 11.972200  4.132450
170  2 -0.7775  0.136849 12.380200  9.739340
171  2 -0.7216  0.293816 11.934900 15.765400
172  2 -0.7652  5.475790 17.929300  3.488550
173  2 -0.8161  6.529080 17.792200  9.711220
174  2 -0.9073  5.809550 17.398600 15.923400
175  2 -0.7800  5.874250  5.727360  4.132060
176  2 -0.5510  6.049080  5.314300 10.511100
177  2 -0.7324  5.719050  5.568660 16.171800
178  2 -0.7473  5.348580 11.921900  3.146480
179  2 -0.6736  6.094850 12.013700 10.381500
180  2 -0.8736  6.004970 11.905200 16.152800
181  2 -0.7826 11.894600 18.007000  3.804100
182  2 -0.7366 12.475300 17.352100  9.769790
183  2 -0.8334 12.501200 18.292600 15.875700
184  2 -0.6674 12.235900  5.878980  3.501020
185  2 -0.7964 12.272100  5.572470 10.398500
186  2 -0.6660 11.814800  6.121460 16.292900
187  2 -0.8600 12.637600 11.850400  3.086220
188  2 -0.8255 12.637300 12.020200  9.818900
189  2 -0.7394 12.765000 12.300000 15.175100
190  2 -0.7518  0.518164  2.292550  0.742171
191  2 -0.7635 18.383800  2.522610  7.046860
192  2 -0.6594 18.647200  2.946080 12.405600
193  2 -0.7681  0.213938  8.703870 -0.009671
194  2 -0.7814 -0.412973  9.007230  7.019570
195  2 -0.8556  0.342427  8.906900 12.471300
196  2 -0.6865  0.340984 14.247900  0.935673
197  2 -0.8672 -0.195022 14.972800  7.435870
198  2 -0.7412 18.231200 14.763200 12.745400
199  2 -0.9367  6.248410  3.175740  0.928418
200  2 -0.6821  6.142000  2.735080  7.293320
201  2 -0.7396  6.735250  3.260600 13.330400
202  2 -0.7211  5.806980  9.102560  0.868621
203  2 -0.5851  6.480900  7.872000  8.013490
204  2 -0.8606  5.449550  8.979450 12.704700
205  2 -0.8750  6.459140 14.894100  0.766477
206  2 -0.7515  5.734090 14.845000  6.640110
207  2 -0.7327  6.370730 15.294400 13.248800
208  2 -0.7289 12.005300  2.353040  0.808511
209  2 -0.7203 11.897700  3.129940  7.768060
210  2 -0.8290 12.254600  2.671800 13.134600
211  2 -0.7962 12.400500  8.497410  0.034177
212  2 -0.7626 12.533500  8.911990  6.221110
213  2 -0.8820 12.518300  9.121780 12.731300
214  2 -0.7316 12.681500 14.436600  0.385511
215  2 -0.8214 12.245800 14.205500  6.816040
216  2 -0.6764 12.347900 15.134700 12.473300

