Generated by pymatgen.io.lammps.data.LammpsData

216  atoms

  2  atom types

0.000000 18.096178  xlo xhi
0.000000 18.140645  ylo yhi
0.000000 18.233787  zlo zhi

Masses

1  208.9804
2   78.9600

Atoms

1    1  0.7302  0.760353 17.487700  0.025518
2    1  0.7131 18.130300 17.886900  6.041580
3    1  0.6863  0.798936 17.196500 11.733300
4    1  0.7914 18.297100  4.935970 18.155000
5    1  0.8579 18.470400  5.702580  5.484520
6    1  0.7969 -0.308228  5.838280 11.352400
7    1  0.8567 18.400900 11.506500 18.123800
8    1  0.7765  0.336369 12.225500  5.229940
9    1  0.7694  0.470634 11.878900 11.942100
10   1  0.8481  5.799890 18.079000 -0.338312
11   1  0.7389  6.366020  0.220072  5.892700
12   1  0.8600  6.315290 17.585800 12.193900
13   1  0.6681  6.388670  6.104450 17.687200
14   1  0.7338  5.738760  5.829270  6.241140
15   1  0.8040  5.702520  5.585650 11.710000
16   1  0.7668  6.040430 11.858900 17.929700
17   1  0.8151  6.746950 12.143200  5.954320
18   1  0.7209  6.035410 11.901000 11.627200
19   1  0.7892 12.256500 18.143100 17.842300
20   1  0.7147 11.995800 16.830700  5.898470
21   1  0.8266 11.979400 -0.041136 12.130700
22   1  0.7961 12.680400  5.920320 17.973000
23   1  0.7780 12.603000  5.720260  5.481400
24   1  0.8147 11.568000  6.225300 12.344200
25   1  0.8658 12.008800 12.007400 18.105600
26   1  0.7946 12.126900 11.632100  6.325460
27   1  0.8512 12.154400 12.095500 11.666700
28   1  0.7384  0.346604  2.701070  2.493010
29   1  0.8461  0.082958  2.214850  8.798650
30   1  0.7605 17.821100  2.631780 14.811100
31   1  0.8700 -0.008045  8.290450  2.453160
32   1  0.6796 -0.232666  8.649130  8.697020
33   1  0.8731 18.450400  8.587790 14.749900
34   1  0.7356 18.481900 15.003400  3.630030
35   1  0.7473 -0.443338 14.412000  9.385740
36   1  0.7430  0.514773 14.614100 15.161300
37   1  0.6897  6.825250  3.311590  2.925150
38   1  0.6967  5.839370  2.591650  8.760440
39   1  0.6349  6.754920  2.964720 14.962600
40   1  0.7755  5.997690  9.168840  2.440540
41   1  0.8178  6.059590  9.165340  8.814920
42   1  0.7925  5.966310  8.773070 15.078100
43   1  0.7417  6.124800 14.637100  3.514030
44   1  0.7921  5.692840 14.255700  9.072020
45   1  0.7448  5.782380 14.755900 15.560500
46   1  0.8680 12.326600  2.755130  2.976790
47   1  0.7583 13.021400  2.547720  9.065450
48   1  0.8604 12.624200  3.096070 15.207600
49   1  0.7827 12.323900  9.295910  2.852310
50   1  0.7393 12.030200  8.615810  8.608840
51   1  0.7779 12.484400  8.851630 14.846000
52   1  0.7636 12.253200 15.116200  2.576090
53   1  0.8263 12.198600 15.206000  9.549940
54   1  0.8067 12.054000 15.024100 15.366400
55   1  0.7951  2.822680 18.381900  3.170040
56   1  0.7058  3.147410 17.311800  9.667940
57   1  0.7810  3.177990 18.138200 15.492100
58   1  0.7905  3.415550  5.645830  2.461160
59   1  0.7704  2.976150  6.223330  8.498970
60   1  0.8976  3.084530  5.666340 14.616300
61   1  0.7667  3.549920 11.544900  3.339450
62   1  0.8410  3.054770 11.755800  8.839630
63   1  0.7912  3.139240 11.533400 15.243300
64   1  0.8103  8.620500 -0.428017  2.864680
65   1  0.7451  9.635430 17.696000  8.975000
66   1  0.8074  9.490320 17.463300 15.035000
67   1  0.7363  8.922360  5.703460  2.897700
68   1  0.7281  9.683540  5.567340  9.006610
69   1  0.6081  8.438530  6.268250 14.968800
70   1  0.8077  8.986060 12.090800  3.158030
71   1  0.8185  8.987260 11.758200  8.873290
72   1  0.7283  9.004610 11.300400 14.720100
73   1  0.7095 15.148600 17.473400  1.969100
74   1  0.7537 15.705700 17.755300  9.196290
75   1  0.7555 15.894200 18.141800 14.395800
76   1  0.8055 15.288300  5.313940  2.534130
77   1  0.7453 15.224600  6.173630  8.225610
78   1  0.8497 15.177000  5.251330 14.214900
79   1  0.8012 15.016100 11.858400  2.781850
80   1  0.8335 15.406300 11.910700  8.733440
81   1  0.7209 15.026400 11.222300 14.593100
82   1  0.8808  3.056990  2.673880 17.836500
83   1  0.8004  3.625050  2.857840  5.999940
84   1  0.7450  3.574850  2.158310 11.548100
85   1  0.7586  3.278420  8.112790 18.092600
86   1  0.7712  3.342610  8.576580  5.630620
87   1  0.8228  2.661290  8.398410 11.490300
88   1  0.8052  3.017940 14.149200  0.086880
89   1  0.7321  3.256590 14.999100  5.778830
90   1  0.6873  3.358700 14.455600 13.110200
91   1  0.6774  9.284280  2.937220 -0.571560
92   1  0.7248  9.077630  2.723170  6.273190
93   1  0.8387  9.445410  2.465880 12.335100
94   1  0.7332  9.143270  9.030980 -0.617169
95   1  0.8428  9.084460  9.622310  6.052010
96   1  0.8135  9.000420  8.699150 11.670300
97   1  0.8213  8.608870 14.684700 18.039500
98   1  0.7278  9.245520 15.108100  6.358890
99   1  0.7188  8.761810 14.536100 11.944700
100  1  0.8175 15.026600  2.265820 17.550600
101  1  0.7894 15.936000  2.589430  5.620980
102  1  0.7782 15.419400  3.086580 11.326500
103  1  0.7352 14.873800  9.071880 17.833000
104  1  0.7399 15.360900  8.948520  5.903340
105  1  0.7922 15.452400  9.281980 11.313600
106  1  0.8033 15.476400 15.230300 17.713900
107  1  0.8099 14.737200 14.521200  5.434720
108  1  0.7853 15.288300 15.015900 12.167900
109  2 -0.8189  3.385930 18.313600  0.119134
110  2 -0.7901  3.614330 18.428100  6.032140
111  2 -0.8376  3.322660 17.676700 12.419100
112  2 -0.8145  2.700360  5.298340 17.367800
113  2 -0.8680  2.995700  5.643570  5.808140
114  2 -0.7152  3.067460  5.527470 11.884500
115  2 -0.7652  2.881760 11.172700 18.732500
116  2 -0.7399  3.447500 11.864100  5.946060
117  2 -0.7255  3.079010 11.326900 11.983800
118  2 -0.7075  9.052960 -0.464125 17.949900
119  2 -0.8492  9.172930 -0.084449  6.187630
120  2 -0.7659  8.949520 17.797800 12.358100
121  2 -0.7748  9.234740  6.180610 18.243500
122  2 -0.6475  9.508410  6.448610  5.892750
123  2 -0.8147  9.135690  6.143140 11.528500
124  2 -0.7373  8.754800 11.829100 18.286300
125  2 -0.9476  9.300940 12.205000  6.192170
126  2 -0.8271  9.265270 11.531500 11.720800
127  2 -0.8889 14.832100 17.899100 17.392900
128  2 -0.6744 15.286500 17.662400  5.446030
129  2 -0.7976 15.115700 -0.179195 11.845500
130  2 -0.7626 15.281200  5.278830 18.008200
131  2 -0.8293 15.337000  5.478590  5.570940
132  2 -0.7452 15.377200  5.945300 11.765100
133  2 -0.6534 15.410200 12.035000 17.990900
134  2 -0.7773 14.923100 11.871300  5.804490
135  2 -0.7706 15.270800 12.151900 11.757300
136  2 -0.7868  2.931740  2.809530  2.365750
137  2 -0.6911  2.758640  3.402900  9.236330
138  2 -0.6909  3.163840  2.722090 14.875700
139  2 -0.7921  3.173540  8.377500  2.773970
140  2 -0.8470  3.091950  9.023320  8.783880
141  2 -0.7048  3.081930  8.805330 14.794700
142  2 -0.8154  3.237660 14.618100  3.184560
143  2 -0.7487  2.978100 14.671200  9.061630
144  2 -0.9113  3.099050 14.777400 15.889800
145  2 -0.7404  9.462270  2.621170  3.168300
146  2 -0.6869  9.877820  2.209400  9.585070
147  2 -0.8126 10.037600  2.810950 15.099300
148  2 -0.6525  9.155980  9.386790  3.351590
149  2 -0.7952  8.746020  8.735630  8.428680
150  2 -0.8558  9.571040  8.808030 14.332400
151  2 -0.7807  9.180760 15.006400  2.640850
152  2 -0.8023  9.672170 14.314000  9.052140
153  2 -0.7538  8.911510 14.611400 15.166100
154  2 -0.7765 14.929000  2.821480  2.420750
155  2 -0.8391 15.571600  2.639630  8.421440
156  2 -0.8897 15.085200  2.725880 14.393300
157  2 -0.7252 15.552800  9.045290  2.130410
158  2 -0.9041 15.152500  9.025240  8.806090
159  2 -0.7231 15.315100  8.501210 14.194100
160  2 -0.8047 15.151700 14.936800  2.443410
161  2 -0.7579 15.126000 14.896200  9.022770
162  2 -0.6818 14.900900 14.688500 14.893500
163  2 -0.8538 18.382300 17.263100  2.675370
164  2 -0.9044  0.458276 17.746400  8.810200
165  2 -0.8102 18.733500 17.916400 14.740300
166  2 -0.8544 18.391700  5.689740  2.727770
167  2 -0.7464 18.102800  5.553880  8.352040
168  2 -0.6739  0.224042  5.646760 14.795100
169  2 -0.6900 17.761800 11.317200  3.035290
170  2 -0.7636  0.226119 11.782400  8.500030
171  2 -0.7635  0.483066 11.554400 15.099100
172  2 -0.7080  6.146820 18.227100  2.839890
173  2 -0.7256  6.380050 17.950700  9.085430
174  2 -0.7315  6.705480 17.521400 14.968500
175  2 -0.8196  6.072340  5.978940  2.315320
176  2 -0.7708  6.018190  5.863810  8.855330
177  2 -0.8800  5.867540  6.096820 14.314900
178  2 -0.8294  6.172970 12.172100  2.604070
179  2 -0.9059  6.232630 11.735500  8.625660
180  2 -0.8512  5.787520 11.481300 15.148800
181  2 -0.7041 11.796100 17.798900  2.892060
182  2 -0.7955 12.560900 17.881500  9.272550
183  2 -0.7364 12.336700 -0.297001 14.577800
184  2 -0.7102 12.462900  6.085450  2.579050
185  2 -0.6797 12.789400  5.936850  9.603260
186  2 -0.7913 12.570300  5.973370 15.175800
187  2 -0.8171 12.040800 11.877500  2.298070
188  2 -0.6978 12.539800 11.856300  9.146200
189  2 -0.7209 12.233900 11.869200 14.979900
190  2 -0.8644 -0.372124  2.379680 17.879400
191  2 -0.7754 18.590000  2.484030  5.533960
192  2 -0.7146  0.009009  2.845000 11.449300
193  2 -0.6963 18.088500  8.755750 18.017400
194  2 -0.7267  0.314455  8.600800  5.779610
195  2 -0.8433  0.177569  8.593090 12.261400
196  2 -0.7494 18.236800 14.453300 -0.188308
197  2 -0.7663 -0.856422 14.516700  5.973460
198  2 -0.8949  0.285653 14.336700 12.206600
199  2 -0.7605  5.763360  2.737500 17.976200
200  2 -0.9366  6.266950  3.219950  6.235570
201  2 -0.7589  6.807680  2.422590 12.233700
202  2 -0.8954  6.043840  8.697060 17.943100
203  2 -0.7304  6.228770  9.435180  5.758450
204  2 -0.6464  5.636630  9.022130 12.152600
205  2 -0.7456  5.641830 14.867400 18.372500
206  2 -0.8300  5.817140 14.677100  6.513580
207  2 -0.8530  5.843960 14.826500 12.189700
208  2 -0.8049 12.157100  2.506620 18.001100
209  2 -0.6985 12.228100  3.191360  5.694680
210  2 -0.6629 12.316600  3.152850 12.108500
211  2 -0.8044 12.083300  9.123960 -0.546222
212  2 -0.8328 12.664400  8.800610  5.646770
213  2 -0.6559 12.257300  9.030250 11.496300
214  2 -0.7602 11.939500 14.584200 18.230200
215  2 -0.8041 11.863900 14.454900  6.432740
216  2 -0.7210 12.080700 14.939600 12.295100

