Generated by pymatgen.io.lammps.data.LammpsData

360  atoms

  2  atom types

0.000000 16.871067  xlo xhi
0.000000 22.058404  ylo yhi
0.000000 29.928687  zlo zhi

Masses

1  208.9804
2   78.9600

Atoms

1    1  0.7639  2.228500 13.239700 21.779700
2    1  0.8309  4.387730 16.853600 21.825400
3    1  0.7483  2.742230  5.894020 21.613300
4    1  0.7971  4.421650  9.608650 21.858200
5    1  0.8395  6.617340 13.273500 21.831400
6    1  0.8298  8.736070 16.895200 21.398500
7    1  0.7638  2.196620 20.683700 21.696300
8    1  0.7342  4.261370  1.908820 21.621100
9    1  0.7649  6.531820  5.912480 21.540200
10   1  0.8256  8.554170  9.816930 21.459200
11   1  0.7953 10.589000 13.175400 21.652300
12   1  0.7721 12.785500 16.915000 21.333000
13   1  0.7673  6.489380 20.244200 21.478100
14   1  0.7246  8.502630  2.126990 21.641200
15   1  0.7316 10.230800  5.810490 21.787800
16   1  0.7503 12.594600  9.650150 21.384900
17   1  0.7471 14.803000 13.048200 21.766100
18   1  0.7914  0.027618 17.098000 21.537200
19   1  0.8212 10.596700 20.455300 21.585600
20   1  0.7135 12.642500  2.688040 21.454000
21   1  0.7796 14.980300  5.900340 21.571700
22   1  0.7592 -0.051800  9.591580 21.606100
23   1  0.7927 14.941700 20.360100 21.631600
24   1  0.7553  0.012318  2.254920 21.654700
25   1  0.7066  2.386120 13.201000 28.181100
26   1  0.7812  4.555040 16.814100 28.495200
27   1  0.7485  2.280810  6.109730 28.351600
28   1  0.7855  4.534880  9.418940 28.458100
29   1  0.7280  6.457520 13.150000 28.326200
30   1  0.7396  8.438890 16.883800 28.654200
31   1  0.8285  2.542890 20.688200 28.482200
32   1  0.7383  4.621790  2.031070 28.354500
33   1  0.7639  6.434450  5.639020 28.415500
34   1  0.8188  8.639960  9.282060 28.477800
35   1  0.7332 10.604300 13.378700 28.382600
36   1  0.7394 12.718100 17.063200 28.200000
37   1  0.7285  6.981260 20.416300 28.178300
38   1  0.7173  9.017660  2.169140 28.357700
39   1  0.8179 10.654700  6.146490 28.606200
40   1  0.7801 12.928700  9.466520 28.602300
41   1  0.6887 14.960400 13.426300 28.845100
42   1  0.7181  0.201565 16.750400 28.432100
43   1  0.6995 11.124500 20.850100 28.359500
44   1  0.7701 13.145300  2.231380 28.462900
45   1  0.7363 15.334600  6.211150 28.597500
46   1  0.7435  0.472896  9.922240 28.461600
47   1  0.7484 15.050500 20.621400 28.570900
48   1  0.7620  0.174543  2.328110 28.244800
49   1  0.8518  2.344590 15.857700  1.646900
50   1  0.7684  4.444600 19.389400  1.778660
51   1  0.8150  2.466570  7.963580  2.082590
52   1  0.8159  4.324870 12.120800  2.023280
53   1  0.8180  6.583660 15.231300  2.412740
54   1  0.7811  8.629600 19.342400  1.926420
55   1  0.7653  2.452980  0.947530  2.075130
56   1  0.7793  4.549780  4.553940  1.809120
57   1  0.7661  6.447180  8.475100  1.972840
58   1  0.7924  8.514240 11.873400  1.749800
59   1  0.7873 10.518800 15.520000  1.881110
60   1  0.7372 12.633800 19.113400  1.758770
61   1  0.7415  6.475690  1.049770  2.151150
62   1  0.8025  8.910820  4.534280  2.113530
63   1  0.7896 10.611900  8.425550  2.249590
64   1  0.8077 12.819400 11.777800  1.732600
65   1  0.7668 15.077000 15.622500  2.075130
66   1  0.7532  0.296587 19.294900  1.649350
67   1  0.8280 11.020700  0.988136  1.740950
68   1  0.8213 12.800500  4.852850  1.990460
69   1  0.8182 14.941700  8.301650  2.047500
70   1  0.8124  0.312909 11.970100  1.926270
71   1  0.7696 15.071800  0.845198  1.658850
72   1  0.8101  0.073378  4.485250  1.970630
73   1  0.8095  2.289260 15.663600  7.963870
74   1  0.8082  4.722370 19.154700  8.393580
75   1  0.7764  2.223290  8.187540  8.233670
76   1  0.8202  4.648800 11.988500  7.942250
77   1  0.8180  6.586200 15.348900  7.604200
78   1  0.8084  8.523610 19.501100  7.997230
79   1  0.7699  2.158420  0.676628  8.308740
80   1  0.8162  4.566710  4.672050  8.235090
81   1  0.8119  6.514220  8.633170  8.289840
82   1  0.8287  8.901190 11.602200  8.155460
83   1  0.7858 10.881000 15.636800  8.172770
84   1  0.7639 12.820100 19.230000  8.179920
85   1  0.8209  6.364250  1.094700  8.228050
86   1  0.7957  8.397980  4.723740  8.472170
87   1  0.8033 10.931100  8.143000  7.944010
88   1  0.7621 13.135400 11.575800  8.149620
89   1  0.7618 14.849600 15.532300  8.290070
90   1  0.8241  0.311294 18.776200  8.156620
91   1  0.7811 10.771200  1.207380  8.283740
92   1  0.8048 12.876000  4.527580  8.250530
93   1  0.7909 15.056300  8.003970  8.010360
94   1  0.8277  0.468567 11.716600  8.266170
95   1  0.7304 15.133700  1.118700  8.339380
96   1  0.7726  0.162755  4.596110  8.192000
97   1  0.7502  0.317744 14.559800 11.709300
98   1  0.7582  2.733580 17.862100 11.489000
99   1  0.7596  0.275624  7.082900 11.847000
100  1  0.8138  2.402310 10.667800 11.535500
101  1  0.8131  4.499100 14.226500 11.247800
102  1  0.7455  6.648860 18.083300 11.349800
103  1  0.7351  0.548763 21.604400 11.628900
104  1  0.7572  2.444760  3.414240 11.483600
105  1  0.7583  4.296220  6.848320 11.580200
106  1  0.7667  6.969190 10.697000 11.445900
107  1  0.8168  8.869460 14.347700 11.337600
108  1  0.7633 10.718900 17.784000 11.601000
109  1  0.7308  4.334840 21.788900 11.271900
110  1  0.7584  6.700080  3.559920 11.838800
111  1  0.7252  8.896370  6.911720 11.809000
112  1  0.7392 11.147400 10.715900 11.557600
113  1  0.7519 13.016000 14.315000 11.516400
114  1  0.7612 14.862700 17.961200 11.529700
115  1  0.7321  8.807740 -0.079187 11.667900
116  1  0.7649 10.352500  3.450800 11.622800
117  1  0.8410 12.784600  7.115990 11.476800
118  1  0.7730 15.148300 10.820400 11.402900
119  1  0.7930 12.906000 21.677800 11.540000
120  1  0.7483 15.187200  3.435370 11.327100
121  1  0.7431 16.739000 14.560000 18.000100
122  1  0.7683  1.965660 17.803900 18.034200
123  1  0.7638  0.115058  7.295500 17.904800
124  1  0.6665  2.440510 10.708000 18.264400
125  1  0.6988  4.152090 14.234900 17.971400
126  1  0.7511  6.423060 17.841800 17.981500
127  1  0.8034  0.337470 21.805600 18.328500
128  1  0.7858  2.235460  3.368060 18.281900
129  1  0.7691  4.273460  7.255850 18.313200
130  1  0.7224  6.266770 10.638600 18.199700
131  1  0.8258  8.387690 14.162500 18.067900
132  1  0.8249 10.536800 18.180100 17.764900
133  1  0.8008  4.309940  0.029326 18.492700
134  1  0.8041  6.308780  3.290290 18.191900
135  1  0.7856  8.596680  7.076580 18.156300
136  1  0.7445 10.606900 10.577100 18.080100
137  1  0.8153 12.545400 14.712300 18.293100
138  1  0.7612 14.704800 18.395200 18.157900
139  1  0.7838  8.740910 21.766700 18.707400
140  1  0.7645 10.785100  3.609050 18.080300
141  1  0.7858 12.888400  7.549200 18.171600
142  1  0.7306 14.780900 10.804100 18.011800
143  1  0.7734 12.755000 -0.027638 18.258500
144  1  0.7317 15.028800  3.531520 18.140300
145  2 -0.9238  0.423340 14.486700  0.283834
146  2 -0.8869  2.542460 18.194600 -0.017758
147  2 -0.8859  0.358121  7.129800  0.326327
148  2 -0.8778  2.499240 10.898000  0.276090
149  2 -0.8389  4.462280 14.701400  0.521375
150  2 -0.8509  6.536590 17.920100  0.409845
151  2 -0.8885  0.251750 21.750700  0.000454
152  2 -0.8455  2.441450  3.228980  0.299172
153  2 -0.8967  4.392230  7.006800  0.250626
154  2 -0.9007  6.679330 10.643500  0.109170
155  2 -0.9044  8.337330 14.223800  0.159950
156  2 -0.8974 10.497000 17.911600  0.219839
157  2 -0.9077  4.495590 21.781700 29.674600
158  2 -0.8821  6.719570  3.521650  0.512265
159  2 -0.8905  8.839090  7.187910  0.185558
160  2 -0.8610 10.625700 10.704400  0.354212
161  2 -0.8443 12.709900 14.616400  0.494042
162  2 -0.8983 14.853700 18.199400  0.280629
163  2 -0.8738  8.927660 21.713600  0.207190
164  2 -0.8658 10.927000  3.599750  0.420201
165  2 -0.8799 12.860100  7.205980  0.271633
166  2 -0.8889 15.077600 10.670800  0.535248
167  2 -0.9665 12.907300 -0.008844  0.237161
168  2 -0.8834 15.056600  3.465980  0.096319
169  2 -0.3256  2.599550 15.468500 26.427000
170  2 -0.2830  4.385800 19.103700 26.568000
171  2 -0.4400  2.466990  8.605760 26.950300
172  2 -0.3205  4.531170 12.285400 26.249000
173  2 -0.2878  6.444180 15.818100 26.331500
174  2 -0.3110  8.524180 19.181000 26.397100
175  2 -0.2811  2.380900  0.858420 26.418200
176  2 -0.3237  4.361670  4.578010 26.522700
177  2 -0.3411  6.165260  8.269380 26.746600
178  2 -0.3236  8.937410 11.700800 26.651400
179  2 -0.2858 10.744400 16.117300 26.390100
180  2 -0.3238 13.449400 19.784100 26.453300
181  2 -0.2836  7.272390  0.873217 26.250400
182  2 -0.4039  8.639510  4.668420 26.907700
183  2 -0.3525 10.921000  8.191370 26.905100
184  2 -0.2980 12.685400 12.092100 26.803300
185  2 -0.3623 14.573100 15.391200 26.839100
186  2 -0.2803  0.541809 19.220600 26.584900
187  2 -0.3299 11.298300  0.896598 26.459700
188  2 -0.3013 13.466400  5.261890 26.738400
189  2 -0.3348 15.249000  9.035770 26.815100
190  2 -0.2899 16.633800 12.596400 26.454900
191  2 -0.3523 15.160900  1.138540 26.657200
192  2 -0.2867  0.522893  4.700310 26.149000
193  2 -0.3522  0.101717 14.644400 23.251600
194  2 -0.2694  2.085760 18.128600 23.640400
195  2 -0.3275  0.139853  7.537660 23.350500
196  2 -0.3157  2.134250 10.724700 23.612700
197  2 -0.3132  4.514530 14.460200 23.591200
198  2 -0.4263  6.521760 18.009400 22.940500
199  2 -0.3800  0.367275 -0.030958 23.222400
200  2 -0.2918  2.518550  3.378390 23.718100
201  2 -0.3265  4.718580  7.276190 23.500400
202  2 -0.3436  6.540590 10.834400 23.405700
203  2 -0.3160  8.468250 14.433200 23.570400
204  2 -0.4041 10.802800 17.666400 22.965100
205  2 -0.3252  4.526290 21.346000 23.496700
206  2 -0.2925  6.424420  3.232600 23.714900
207  2 -0.3487  8.398690  6.969580 23.410000
208  2 -0.4429 10.762500 10.594100 22.930100
209  2 -0.2618 12.464300 14.466700 23.553500
210  2 -0.4118 14.755800 18.141300 23.116300
211  2 -0.3891  8.544750 21.384100 23.104000
212  2 -0.2591 10.583300  3.207090 23.964700
213  2 -0.2400 12.411300  7.270180 23.497700
214  2 -0.3390 14.639600 10.648200 23.348100
215  2 -0.2862 12.570400 21.772900 23.239800
216  2 -0.3297 14.299100  3.807550 23.497800
217  2 -0.8466  2.607870 13.081800  9.635630
218  2 -0.8635  4.879130 16.606700  9.657230
219  2 -0.9186  2.393400  5.758020  9.736260
220  2 -0.8349  4.377260  9.726290  9.902650
221  2 -0.8293  6.691110 13.198700  9.631650
222  2 -0.8387  8.731960 16.612700  9.910170
223  2 -0.9005  2.513610 20.188200  9.854880
224  2 -0.8928  4.487280  2.214320  9.684360
225  2 -0.9176  6.686960  5.781010 10.109400
226  2 -0.9232  8.551470  9.491630  9.543060
227  2 -0.8799 10.889400 13.077800  9.757380
228  2 -0.9378 12.801000 16.753900 10.113100
229  2 -0.9130  6.586640 20.545000  9.779680
230  2 -0.9340  8.557700  2.239150 10.039100
231  2 -0.8815 10.902300  6.092370  9.795580
232  2 -0.9109 13.116100  9.350160  9.758330
233  2 -0.9042 15.276700 13.082800  9.608050
234  2 -0.9130  0.423953 16.594100  9.713690
235  2 -0.8367 10.900400 20.516500  9.676760
236  2 -0.8697 12.635400  2.033970 10.028100
237  2 -0.8907 14.869900  5.819280  9.628680
238  2 -0.9000  0.261369  9.523910 10.110700
239  2 -0.8226 15.171400 20.431200  9.882180
240  2 -0.9620  0.202902  2.139530  9.941300
241  2 -0.2536  0.423005 14.493600  6.152600
242  2 -0.3337  2.941100 18.297100  6.581580
243  2 -0.3400  0.109833  7.188230  6.253590
244  2 -0.4216  2.188390 10.627500  6.719590
245  2 -0.3557  4.252700 14.577800  6.212050
246  2 -0.3696  6.552880 17.993300  6.325190
247  2 -0.3493  0.375849 21.240500  6.736980
248  2 -0.2667  2.300580  3.427490  6.366890
249  2 -0.3357  4.252550  7.017490  6.534650
250  2 -0.3981  6.730860 10.710900  6.495530
251  2 -0.3668  8.961350 14.104900  6.386250
252  2 -0.4112 10.606100 18.429900  6.646910
253  2 -0.2868  4.123290 21.812200  6.450080
254  2 -0.3902  6.666490  3.579710  6.668270
255  2 -0.3409  8.740990  7.167660  6.594010
256  2 -0.3198 10.804300 10.706900  6.203190
257  2 -0.3015 12.916400 14.329100  6.378600
258  2 -0.3991 15.181100 17.569600  6.554520
259  2 -0.3305  8.446010  0.042747  6.491440
260  2 -0.3360 10.890700  3.374140  6.497890
261  2 -0.3506 12.991300  6.505460  6.334050
262  2 -0.3166 15.335800 10.713500  6.327060
263  2 -0.2286 12.977500 21.895300  5.993450
264  2 -0.3647 15.084000  3.514710  6.507670
265  2 -0.3713  2.646430 13.420200  3.370730
266  2 -0.2779  4.214250 16.599800  3.699260
267  2 -0.3655  2.644130  5.690720  3.568560
268  2 -0.3554  4.682810  9.428860  3.751170
269  2 -0.4174  6.271610 13.107400  3.832540
270  2 -0.3547  8.794110 17.020900  3.872240
271  2 -0.3766  2.374170 20.578100  3.448530
272  2 -0.3060  4.467430  2.022900  4.048900
273  2 -0.2634  6.593220  5.916590  4.022960
274  2 -0.3328  8.553020  9.471320  3.892720
275  2 -0.3400 10.866600 12.881900  3.434680
276  2 -0.2873 12.790200 16.642700  3.840230
277  2 -0.3104  6.275310 20.780400  3.918750
278  2 -0.3690  8.943990  1.906640  3.464260
279  2 -0.3672 10.928800  5.764700  3.839070
280  2 -0.4050 12.990100  9.650600  3.571960
281  2 -0.2948 14.983100 13.103700  3.651300
282  2 -0.3575  0.588274 16.957300  3.514680
283  2 -0.3068 10.603000 20.681900  3.701850
284  2 -0.2957 13.244600  2.373010  3.636950
285  2 -0.3794 15.052100  5.724140  3.560180
286  2 -0.3226  0.239189  9.616880  3.620510
287  2 -0.2931 15.198700 20.543600  3.717930
288  2 -0.3501  0.505243  2.404600  3.594180
289  2 -0.8472  2.068840 15.815100 19.941700
290  2 -0.8161  4.179750 19.201300 19.913000
291  2 -0.8703  2.275300  8.271550 19.966200
292  2 -0.8807  4.364660 12.036500 20.247600
293  2 -0.8264  6.141680 15.655600 19.873400
294  2 -0.8989  8.773410 19.100800 19.838100
295  2 -0.9630  2.341530  0.942135 19.990500
296  2 -0.8997  4.449970  4.631280 19.880100
297  2 -0.8959  6.518400  8.397990 20.076700
298  2 -0.9043  8.264570 12.030700 20.094200
299  2 -0.8748 10.214200 15.356100 19.712000
300  2 -0.8765 12.416900 19.482000 19.709000
301  2 -0.9347  6.539700  1.010020 19.894300
302  2 -0.8935  8.441390  4.717870 19.745800
303  2 -0.8939 10.613500  8.313360 19.782500
304  2 -0.8926 12.527200 12.203500 19.844000
305  2 -0.8917 14.655600 15.888500 19.935300
306  2 -0.9014  0.043711 19.276900 19.697200
307  2 -0.9034 10.701000  1.194760 19.818600
308  2 -0.8786 12.897900  4.946610 19.918600
309  2 -0.9125 14.977700  8.263670 19.615700
310  2 -0.8666 -0.062311 12.039300 19.717300
311  2 -0.8480 15.133700  0.692860 20.196200
312  2 -0.8652  0.121010  4.709430 19.829600
313  2 -0.3177  2.592280 13.218700 15.906600
314  2 -0.2835  4.268020 16.942700 15.923200
315  2 -0.3639  2.547810  6.144000 16.583400
316  2 -0.3003  4.224820  9.263450 16.175400
317  2 -0.2849  6.313120 13.088300 16.043400
318  2 -0.3718  8.703140 16.399500 16.460500
319  2 -0.2822  2.523500 20.714600 16.510000
320  2 -0.3573  4.196870  2.031580 16.670300
321  2 -0.2973  6.499530  5.875650 16.290000
322  2 -0.3666  8.115850  9.809250 16.407400
323  2 -0.3155 10.384000 13.193400 16.528000
324  2 -0.3643 12.577300 17.040500 16.396500
325  2 -0.2898  6.705270 20.693000 16.622600
326  2 -0.2440  8.902310  2.229620 16.227600
327  2 -0.3503 10.912300  6.600170 16.451800
328  2 -0.3309 12.828700  9.593180 16.108400
329  2 -0.3221 14.469600 13.743400 16.465600
330  2 -0.3262 16.418300 16.863400 16.177200
331  2 -0.3813 10.376700 20.876600 16.686500
332  2 -0.3813 13.291300  2.202810 16.586300
333  2 -0.2469 14.673200  5.830880 15.858300
334  2 -0.2996  0.245913  9.632940 15.929400
335  2 -0.2803 15.199300 20.584600 16.224800
336  2 -0.3691  0.450619  1.703360 16.589100
337  2 -0.4039  2.410270 15.568000 13.186600
338  2 -0.3672  4.433720 19.488100 13.121100
339  2 -0.3803  2.548530  8.308140 13.221400
340  2 -0.3417  4.735550 12.009200 12.979900
341  2 -0.2555  6.308330 15.512900 13.374600
342  2 -0.2966  8.685450 18.941200 13.629600
343  2 -0.2580  2.695200  1.263190 13.521500
344  2 -0.3673  4.202450  4.436210 13.321600
345  2 -0.2658  6.434820  8.527640 13.566900
346  2 -0.3802  9.283590 12.226800 13.016800
347  2 -0.2954 10.376300 15.509700 13.397800
348  2 -0.3704 12.850800 19.376200 13.210900
349  2 -0.3130  6.418780  1.283680 13.419200
350  2 -0.3944  9.043690  4.705570 13.667400
351  2 -0.3901 11.121700  8.245710 13.240000
352  2 -0.3488 13.232500 12.120800 13.273800
353  2 -0.3350 14.784100 15.373100 13.381800
354  2 -0.3320  0.369694 19.014800 13.221800
355  2 -0.3101 10.738900  1.013760 13.438700
356  2 -0.3116 12.660500  4.190510 13.076300
357  2 -0.3678 14.803800  8.166430 13.160000
358  2 -0.2665  0.033769 12.015400 13.743700
359  2 -0.2577 14.872400  0.676769 13.416400
360  2 -0.3587  0.359489  4.531890 13.400800

