Generated by pymatgen.io.lammps.data.LammpsData

320  atoms

  2  atom types

0.000000 16.864293  xlo xhi
0.000000 23.165087  ylo yhi
0.000000 24.472453  zlo zhi

Masses

1  208.9804
2   78.9600

Atoms

1    1  0.8129  0.604936 11.687600 11.052800
2    1  0.8684  0.659295 12.220500 22.784600
3    1  0.7012  0.816442 22.771500  9.552780
4    1  0.8153  0.605014  0.754612 23.739900
5    1  0.8869  5.927130 12.394800 10.128600
6    1  0.8744  5.491930 11.443600 22.800600
7    1  0.8045  4.884880  0.218485 11.131400
8    1  0.7420  3.949220 -0.178420 21.443700
9    1  0.8181  9.783270 11.434800 12.080700
10   1  0.8245  9.577940 10.617700 23.330100
11   1  0.8676  9.155940 23.017800 10.787100
12   1  0.7437  9.402000 22.999700 22.300500
13   1  0.7893 12.759500 12.820800 10.092200
14   1  0.8354 13.805200 11.721100 22.643300
15   1  0.8766 13.571200 22.788100 10.465400
16   1  0.8960 13.425700 22.729600 23.296700
17   1  0.7820  2.952350  0.810466  2.357990
18   1  0.6761  1.970460  0.549102 14.022800
19   1  0.7727  2.618590 11.834600  3.627910
20   1  0.8098  3.349680 13.879100 14.925800
21   1  0.7441  6.807570  0.290248  2.286780
22   1  0.8469  6.702110  0.388212 15.183500
23   1  0.7554  7.844240 12.144700  2.098140
24   1  0.8153  6.141160 10.817600 15.201400
25   1  0.8406 11.570700  0.749867  2.523880
26   1  0.8090 11.573000  0.446475 16.181400
27   1  0.8180 11.775300 12.380100  3.077110
28   1  0.8614 10.896700 12.047200 15.550900
29   1  0.8679 15.549000  0.362328  3.213950
30   1  0.7254 15.701900  1.609250 15.471600
31   1  0.8686 15.442100 11.417100  2.406410
32   1  0.9027 15.112100 12.550600 15.166500
33   1  0.7902  3.060940  6.648290  9.125100
34   1  0.8340  2.834840  5.997960 20.909000
35   1  0.8589  2.654050 17.643500  8.049440
36   1  0.7971  3.040750 17.340900 19.983900
37   1  0.8887  6.975220  6.285520  8.756060
38   1  0.7420  6.623200  6.361230 20.195500
39   1  0.8428  7.088540 17.992900  8.195500
40   1  0.8168  7.466380 17.197900 21.363700
41   1  0.7847 11.168000  5.731840  8.548520
42   1  0.8266 10.664500  6.341140 21.037900
43   1  0.8180 11.334200 17.427300  8.955530
44   1  0.7620 11.270200 18.018200 21.282000
45   1  0.8382 15.289500  5.941270  8.545680
46   1  0.8308 14.712600  5.833880 20.789300
47   1  0.8284 15.310600 18.034800  8.069810
48   1  0.8224 15.857700 16.984800 21.299600
49   1  0.8071  0.579261  6.505040  4.773980
50   1  0.8327  0.273160  6.362330 17.164600
51   1  0.8305  0.975953 17.810900  4.799180
52   1  0.7675  0.844544 17.560000 16.033400
53   1  0.7790  5.000430  5.569940  5.044410
54   1  0.8066  4.461050  6.983680 17.100800
55   1  0.7827  5.298750 18.118800  4.565470
56   1  0.7709  4.966530 17.802500 15.946900
57   1  0.7845  8.711510  5.276100  4.390680
58   1  0.8212  9.604700  7.140550 17.103000
59   1  0.8967  9.506220 18.680500  5.078940
60   1  0.7647  8.966310 18.027800 15.978600
61   1  0.7707 13.373600  6.873590  4.493220
62   1  0.7186 13.431700  6.306010 17.116700
63   1  0.7389 14.099300 19.051700  4.329060
64   1  0.9116 13.411500 17.962200 17.243000
65   1  0.7760  2.351410  2.509800  8.068480
66   1  0.6822  0.918503  1.763300 19.580700
67   1  0.7997  0.342197 14.223200  5.319430
68   1  0.7356  0.734166 14.217500 18.940300
69   1  0.7862  5.393260  2.002250  5.060580
70   1  0.8084  4.391100  2.664520 18.602600
71   1  0.7724  6.206310 13.711300  6.514130
72   1  0.7884  4.761570 14.271300 18.758900
73   1  0.9162  9.685100  2.296530  6.874340
74   1  0.7763  8.938950  2.523180 19.385900
75   1  0.8360  9.658000 14.738800  5.230570
76   1  0.8495  8.455990 14.413800 18.020600
77   1  0.8777 13.515700  2.227740  7.494100
78   1  0.7478 13.406100  2.978900 18.553000
79   1  0.8285 13.576100 14.003500  6.154100
80   1  0.8054 13.026100 13.959700 18.781000
81   1  0.7152  2.809780  9.854340  6.646140
82   1  0.7578  2.484500 10.654300 19.062800
83   1  0.7404  2.565250 22.044100  6.418400
84   1  0.9113  2.666110 20.782300 18.483600
85   1  0.6930  5.843560 10.443600  4.477650
86   1  0.7749  6.940730 10.039100 18.616200
87   1  0.8596  6.707640 21.806900  6.929100
88   1  0.8413  7.121110 20.967400 18.159300
89   1  0.8884 10.864100 10.182100  7.239760
90   1  0.7882 10.893700 10.444500 19.324300
91   1  0.9053 11.237900 21.434300  7.546790
92   1  0.7870 11.538100 21.214000 19.661900
93   1  0.8254 15.819700 10.072800  7.227770
94   1  0.7899 15.936500 10.788300 19.478300
95   1  0.7322 15.593600 21.911600  6.707270
96   1  0.8435 15.058900 22.093600 20.052100
97   1  0.7714  3.518070  7.810610 12.963500
98   1  0.8413  3.375120  8.252910 24.450100
99   1  0.7314  3.096560 19.781600 12.679700
100  1  0.8748  3.001730 18.774900  1.592460
101  1  0.8012  7.814840  7.920640 12.950800
102  1  0.8481  7.005460  7.804720  0.814546
103  1  0.8534  7.286290 19.813100 12.601400
104  1  0.8513  7.012310 20.332400 24.826300
105  1  0.7166 11.547800  7.841140 13.464100
106  1  0.8071 11.667100  7.840590  1.233200
107  1  0.8189 11.774400 19.523000 13.476900
108  1  0.7510 11.463300 19.570000  1.796470
109  1  0.7828 15.354400  8.768740 13.172400
110  1  0.8192 16.067700  7.874400  1.097520
111  1  0.6721 16.543400 19.712300 13.618500
112  1  0.8090 15.376300 19.559000  0.803495
113  1  0.7248  0.703805  4.267810  0.684505
114  1  0.7716  1.039470  5.257190 13.348400
115  1  0.7882  4.207170 15.993900 23.766600
116  1  0.7807  1.066370 16.710500 12.109100
117  1  0.8049  5.346820  3.090050 24.133800
118  1  0.8581  5.065590  4.169270 11.756300
119  1  0.6727  6.642520 15.456200  2.521220
120  1  0.8622  5.247910 15.856400 11.855100
121  1  0.7681  9.694920  4.262270 24.811300
122  1  0.8497  9.604960  4.475540 12.498700
123  1  0.8426  9.554240 15.127700 24.701100
124  1  0.7998  9.257880 16.163300 11.838700
125  1  0.8081 14.030300  4.408030  0.393512
126  1  0.7838 13.772700  4.870810 12.200800
127  1  0.8099 14.328600 16.000900  0.499264
128  1  0.8242 13.473300 15.943100 11.867200
129  2 -0.5052  0.970104  4.692810  9.803690
130  2 -0.5152  0.178973  4.173380 21.519300
131  2 -0.4458  0.787645 15.696200  8.698620
132  2 -0.6028  1.178840 15.851400 21.590500
133  2 -0.5579  4.871240  4.252730  9.010290
134  2 -0.6178  4.803370  3.826290 20.865500
135  2 -0.5539  5.256270 14.589500  9.119070
136  2 -0.4585  5.940890 14.772500 22.086800
137  2 -0.4964  9.547410  3.321790  9.404920
138  2 -0.5353  8.767080  4.147510 21.674500
139  2 -0.5054  9.196450 15.664600  9.002350
140  2 -0.3727  9.292160 15.021900 21.368600
141  2 -0.6033 13.358200  3.915500  9.583840
142  2 -0.5357 12.423500  4.611590 21.789700
143  2 -0.6434 13.350300 15.699200  9.202350
144  2 -0.4527 13.176800 15.445400 21.770000
145  2 -0.5628  2.484060  8.097680  3.775410
146  2 -0.5250  2.150160  8.194730 16.076900
147  2 -0.5488  2.813570 19.889300  3.942680
148  2 -0.6376  3.194230 19.869300 15.724200
149  2 -0.5255  6.898230  7.790820  4.161310
150  2 -0.6710  6.653790  8.062760 15.759600
151  2 -0.5054  7.232220 20.130500  4.365370
152  2 -0.6147  7.492920 20.135300 15.552100
153  2 -0.3732 10.585500  8.329580  4.160420
154  2 -0.5717 11.794000  8.555250 16.259700
155  2 -0.5446 11.583900 20.567800  4.373230
156  2 -0.4966 11.614700 19.848200 16.582100
157  2 -0.5985 15.819200  8.598320  3.972230
158  2 -0.4119 15.479200  8.933300 16.926800
159  2 -0.6529 16.213800 20.455200  3.923790
160  2 -0.4519 15.618900 19.722500 16.302500
161  2 -0.4421  3.286750  9.533790  9.808530
162  2 -0.4792  3.116130  9.893810 22.089000
163  2 -0.4813  3.721490 21.143800 10.076800
164  2 -0.4688  5.010380 18.484000 22.351600
165  2 -0.5239  6.862760 10.071500 11.730900
166  2 -0.5508  7.031040  9.261730 22.763700
167  2 -0.4775  7.111130 21.159100 10.248500
168  2 -0.4014  6.398630 21.239500 21.316700
169  2 -0.4554 11.106800  9.708840  9.941860
170  2 -0.4928 11.726800  9.429040 22.231700
171  2 -0.4985 11.687800 20.647400 10.511700
172  2 -0.6705 11.639200 21.099100 22.683000
173  2 -0.4448 14.738100 10.484100 10.508400
174  2 -0.5185 16.283700 10.065100 22.325400
175  2 -0.4903 15.366500 20.556300  9.197220
176  2 -0.5065 15.578700 21.400500 22.854900
177  2 -0.3746  1.215480  2.897670  3.273390
178  2 -0.5197  1.208380  2.661240 15.926800
179  2 -0.3755  0.943418 13.684900  2.635770
180  2 -0.4701  0.312049 14.981500 14.229200
181  2 -0.6449  4.975410  2.739100  2.372520
182  2 -0.4065  4.816340  1.983690 14.625400
183  2 -0.7350  5.317900 13.198300  3.962200
184  2 -0.4227  5.915750 13.741800 14.716500
185  2 -0.5542  8.981770  1.993620  3.555510
186  2 -0.2877  9.521990  2.593990 16.065500
187  2 -0.7887  9.224680 14.021200  2.782640
188  2 -0.3732  8.727190 14.322600 15.210200
189  2 -0.3689 13.769700  2.322290  3.271960
190  2 -0.5066 12.602100  3.633180 15.860200
191  2 -0.5317 14.162800 13.928900  2.984860
192  2 -0.4253 13.136100 14.208300 15.612300
193  2 -0.6227  0.418878 11.308200  5.408820
194  2 -0.5709  0.654252 12.061000 17.203000
195  2 -0.5523  0.454789  1.068560  6.100030
196  2 -0.4955  0.113865 22.678000 17.735700
197  2 -0.4568  2.878910 12.537300  7.018130
198  2 -0.5949  4.420240 11.774500 17.206900
199  2 -0.6100  4.734420 22.528900  4.017160
200  2 -0.5833  3.617270 -0.322619 18.066000
201  2 -0.4822  9.663180 11.724200  5.052990
202  2 -0.6377  8.617830 11.799900 17.251400
203  2 -0.4554  9.508390 22.891500  6.002220
204  2 -0.5366  9.404680 22.046600 17.785200
205  2 -0.5689 13.331500 11.431700  5.345220
206  2 -0.5955 13.026300 11.571300 17.554100
207  2 -0.5296 12.942000 23.192000  5.889540
208  2 -0.5960 13.618000 22.867100 18.027600
209  2 -0.6157  4.562020  0.882586  7.321720
210  2 -0.5562  1.601760 22.293100 21.059300
211  2 -0.4766  6.406470 11.178200  7.144240
212  2 -0.6366  2.982210 13.206000 20.363000
213  2 -0.4110  7.517470  0.871603  8.723460
214  2 -0.5404  6.632030  0.977997 18.523000
215  2 -0.3587  8.855970 12.636200  9.547310
216  2 -0.5036  6.695480 12.567700 19.766000
217  2 -0.6069 11.312900  0.658473  8.723590
218  2 -0.6096 11.033800  0.798313 20.310300
219  2 -0.5035 11.297100 13.402300  7.380060
220  2 -0.4776 11.311700 12.490900 21.049500
221  2 -0.6351 15.373200  0.910755  8.823110
222  2 -0.5409 14.479100  1.396850 21.282200
223  2 -0.4959 15.542900 13.051200  7.992370
224  2 -0.7547 15.552200 13.042100 20.613200
225  2 -0.4013  3.168900  5.726080  1.626780
226  2 -0.4971  3.809320  5.232200 14.357500
227  2 -0.4543  3.540990 15.918000  2.090590
228  2 -0.7621  3.167800 17.098800 13.614800
229  2 -0.5130  7.217590  5.043770  1.661250
230  2 -0.3988  7.323210  4.849720 13.548500
231  2 -0.4773  9.013850 17.544300  2.412040
232  2 -0.6270  7.102680 17.171800 13.434200
233  2 -0.5740 11.650000  5.225820  2.571320
234  2 -0.5372 10.423200  5.719640 14.852500
235  2 -0.4500 12.107900 16.423600  2.701780
236  2 -0.5454 11.506700 17.294000 14.829700
237  2 -0.6079 15.522600  5.380360  2.395870
238  2 -0.7101 15.479700  6.041730 14.118000
239  2 -0.5037 16.774400 17.082700  2.214860
240  2 -0.4225 14.871900 16.888100 14.026600
241  2 -0.6057  1.253570  7.548690 11.731500
242  2 -0.5358  1.522750  7.176800 23.417400
243  2 -0.6029  1.031400 19.082100 10.853800
244  2 -0.3540  1.389410 19.116400 23.816500
245  2 -0.6429  5.545570  6.618690 11.129500
246  2 -0.4092  6.136710  5.926160 23.331600
247  2 -0.5102  5.157540 18.204600 10.495300
248  2 -0.6066  5.537440 18.327100  1.531810
249  2 -0.6494  9.477460  6.587490 10.990100
250  2 -0.5530  9.305830  6.977390 23.747400
251  2 -0.6168  9.256710 18.474500 10.778200
252  2 -0.4981  8.464790 17.747200 24.063400
253  2 -0.5614 13.399900  7.145860 10.681100
254  2 -0.5699 13.844500  6.824600 23.888700
255  2 -0.4777 14.195200 18.708200 11.555500
256  2 -0.6396 13.684300 18.303000 23.808500
257  2 -0.5029  0.876911 10.428800  1.488650
258  2 -0.4372  0.236992 10.815200 13.849500
259  2 -0.5254  0.784639 22.535500  1.397700
260  2 -0.5368 16.629500 22.584400 12.179800
261  2 -0.6784  5.599450 10.088800  1.213390
262  2 -0.4085  3.968320 11.191100 13.496800
263  2 -0.4101  4.234730 21.611100 24.245400
264  2 -0.6332  5.129960 21.710200 13.404200
265  2 -0.5624 10.132200  9.981400  1.909450
266  2 -0.6297  9.341520  9.710810 14.523100
267  2 -0.5291  9.210670 21.509600  1.486380
268  2 -0.4955  9.755100 21.657700 13.418100
269  2 -0.6119 13.988000  9.738070  1.181170
270  2 -0.4879 12.838100 10.774500 13.757700
271  2 -0.6461 13.702700 21.800700  1.399350
272  2 -0.3749 13.215500 22.127600 14.107500
273  2 -0.6294  2.939190  2.183640 10.983000
274  2 -0.6701  2.862660  2.401930 23.183700
275  2 -0.4780  2.760160 14.169700 11.867200
276  2 -0.4005  3.552350 12.967600 24.125600
277  2 -0.4435  7.343930  1.648730 12.375200
278  2 -0.6125  7.159460  0.424817 24.098300
279  2 -0.4417  7.490010 13.884700 12.184300
280  2 -0.5989  7.950950 13.133800 24.085000
281  2 -0.3667 11.451400  1.516870 12.257300
282  2 -0.5352 12.083800  2.010650 24.564600
283  2 -0.5395 11.163600 13.657800 12.555500
284  2 -0.4802 11.689200 12.817900 24.573700
285  2 -0.4395 15.530700  2.729710 12.615400
286  2 -0.5682 15.627700  1.534340  0.665384
287  2 -0.5002 14.480600 13.668600 12.118800
288  2 -0.4817 15.964600 13.844900 -0.303925
289  2 -0.5321  3.121460  3.688280  5.410430
290  2 -0.5712  2.524710  4.919610 18.344000
291  2 -0.6038  3.167310 16.290700  5.798110
292  2 -0.7780  2.629360 16.085200 17.556800
293  2 -0.6212  7.473090  3.904030  6.341090
294  2 -0.3640  6.485290  4.141560 17.209500
295  2 -0.7288  7.496030 16.662500  5.923660
296  2 -0.6629  6.914650 16.359000 18.297800
297  2 -0.5704 11.222100  4.265120  5.973060
298  2 -0.6002 11.166100  4.938960 18.519900
299  2 -0.5351 11.149400 16.821400  6.145600
300  2 -0.5635 11.394200 15.994500 18.500400
301  2 -0.4434 14.884600  4.415080  5.931300
302  2 -0.7132 15.567300  4.400580 18.282400
303  2 -0.6248 15.102800 16.481300  5.269760
304  2 -0.5378 15.543200 16.542600 17.846200
305  2 -0.6611  0.610327  7.881520  7.661400
306  2 -0.4519  0.693261  7.499460 19.676800
307  2 -0.6744  0.767190 19.385400  6.843590
308  2 -0.4776  0.931475 18.951900 19.202800
309  2 -0.5849  5.077360  7.490440  7.204890
310  2 -0.7262  4.867070  8.146480 19.542000
311  2 -0.5465  4.396740 19.838900  7.087310
312  2 -0.5676  4.942150 18.996900 18.712300
313  2 -0.4359  9.020990  7.516740  7.601700
314  2 -0.7781  8.961870  8.279420 19.437300
315  2 -0.6058  8.934220 19.891800  7.617190
316  2 -0.6044  9.251690 19.462100 20.221900
317  2 -0.5446 13.719300  8.012450  7.459080
318  2 -0.4488 13.845700  8.638500 20.016200
319  2 -0.6050 13.161900 19.592700  7.040400
320  2 -0.5296 13.903900 19.070300 20.135700

