Generated by pymatgen.io.lammps.data.LammpsData

360  atoms

  2  atom types

0.000000 16.677463  xlo xhi
0.000000 21.699897  ylo yhi
0.000000 28.493178  zlo zhi

Masses

1  208.9804
2   78.9600

Atoms

1    1  0.7511  1.877670 12.313200 20.392600
2    1  0.8321  3.881720 16.716800 19.770900
3    1  0.7958  2.431680  5.518580 20.613500
4    1  0.7698  4.658960  9.470290 20.775800
5    1  0.8172  5.958050 12.783900 20.970000
6    1  0.7102  8.568690 16.282700 20.422300
7    1  0.8222  2.706770 20.355600 20.146200
8    1  0.6608  4.387270  1.941000 20.344700
9    1  0.7530  6.291390  5.666790 20.903600
10   1  0.8055  8.428660  8.948730 20.409200
11   1  0.7532 10.612100 12.514600 19.831300
12   1  0.8422 12.855300 16.068300 20.081100
13   1  0.7933  6.602010 19.939500 20.450200
14   1  0.8036  8.092470  1.911270 20.751000
15   1  0.7444 11.167200  5.677300 20.968500
16   1  0.7211 12.695600  8.593280 19.910100
17   1  0.7605 14.746500 12.938300 20.106500
18   1  0.8283  0.262935 16.277700 20.711200
19   1  0.8566 10.986600 19.380200 20.755200
20   1  0.7396 12.683500  1.643510 20.713000
21   1  0.7576 15.303500  5.273660 20.250300
22   1  0.7438  0.307371  9.394370 20.065300
23   1  0.7493 14.621800 20.009000 20.891900
24   1  0.7145  0.438855  1.705260 20.881200
25   1  0.6939  2.238700 13.194600 26.732700
26   1  0.7870  4.465240 15.620600 25.994200
27   1  0.7648  2.199070  5.435400 26.612800
28   1  0.8576  4.540020  9.659960 26.160000
29   1  0.7440  6.536380 12.785000 26.134400
30   1  0.8188  8.381320 16.012500 25.798500
31   1  0.8455  1.961830 19.684000 26.399900
32   1  0.7548  4.767450  2.437870 26.522400
33   1  0.7573  6.634280  5.836230 27.114500
34   1  0.7965  8.541730  9.220420 26.406900
35   1  0.7671 10.266800 12.970500 26.100200
36   1  0.8521 12.537600 16.801200 26.259500
37   1  0.8995  6.446170 20.121200 26.120900
38   1  0.8002  8.711800  1.842640 26.860900
39   1  0.7841 10.400600  5.698460 27.051200
40   1  0.7825 12.462400  9.425340 25.796700
41   1  0.8728 14.564000 13.176300 26.346300
42   1  0.8071  0.125937 16.222600 26.465300
43   1  0.8126 10.663500 19.806900 26.594200
44   1  0.8307 12.812800  1.547090 26.609300
45   1  0.8467 14.928000  5.508180 26.372900
46   1  0.7853  0.030000  9.387360 26.038700
47   1  0.7990 14.738600 19.858400 26.340700
48   1  0.8039  0.561164  1.766640 26.579300
49   1  0.7070  2.533850 15.366400  1.445630
50   1  0.8174  4.360420 19.469700  1.381030
51   1  0.7770  2.353510  7.503870  1.576830
52   1  0.7985  3.932980 11.117700  1.335500
53   1  0.8158  6.361460 15.238900  1.467080
54   1  0.7559  8.033600 18.954200  1.163160
55   1  0.7596  2.012740  0.580503  1.784110
56   1  0.6764  4.105990  4.060580  1.760550
57   1  0.8356  6.413200  8.099670  1.682490
58   1  0.7821  8.357550 12.212700  1.797790
59   1  0.7905 10.542800 15.412000  1.457940
60   1  0.7785 12.502900 18.936600  2.112270
61   1  0.6904  6.570110  0.792345  1.360520
62   1  0.7998  8.450410  4.393820  2.553680
63   1  0.8094 10.507900  8.380310  1.882430
64   1  0.7697 12.377900 11.379300  0.914049
65   1  0.8219 14.901700 15.660500  1.476120
66   1  0.7391  0.089237 19.159100  1.363160
67   1  0.7353 10.750300  0.995716  1.458090
68   1  0.8162 12.243200  4.600200  1.595950
69   1  0.7938 14.777200  7.632770  1.794930
70   1  0.7024  0.171153 11.372800  0.860883
71   1  0.7905 14.449100  0.801028  1.683530
72   1  0.7648  0.687468  4.155870  1.172380
73   1  0.7884  2.122220 15.510500  7.942900
74   1  0.7685  4.462610 18.821700  7.065890
75   1  0.7814  2.631950  7.612000  7.249220
76   1  0.7894  4.434110 11.702800  7.185270
77   1  0.8039  6.239120 15.115500  7.519980
78   1  0.8434  8.507340 19.019900  7.703550
79   1  0.7589  2.673010  0.170965  7.586030
80   1  0.7821  4.232730  4.249400  7.069440
81   1  0.8922  6.333190  8.086560  6.680040
82   1  0.7303  8.628310 11.652800  7.030500
83   1  0.7953 11.191900 14.599500  6.649700
84   1  0.7786 12.756000 18.474400  7.233110
85   1  0.7528  6.362610  0.604456  7.865220
86   1  0.7389  8.477770  5.006740  8.076060
87   1  0.8640 10.405200  7.885930  7.259710
88   1  0.7665 13.088400 11.297700  7.477560
89   1  0.7687 14.708700 15.205700  7.224860
90   1  0.7308  0.029001 18.834400  7.181130
91   1  0.9236 10.810900  0.715339  7.397290
92   1  0.7643 12.584400  4.049990  7.590510
93   1  0.8903 14.458600  7.957870  6.908690
94   1  0.7737  0.093713 11.706900  7.783860
95   1  0.7517 14.889000  1.115040  7.509630
96   1  0.7609  0.285916  4.304240  7.509000
97   1  0.8351 16.655500 13.664800 11.090900
98   1  0.8487  2.243640 17.174600 11.457700
99   1  0.7176  0.224456  6.828730 10.671200
100  1  0.6866  2.092140 10.536900 10.557000
101  1  0.8751  4.475630 13.530700 10.739000
102  1  0.9479  6.055680 17.289200 11.137100
103  1  0.7247  0.281793 20.266000 10.798700
104  1  0.8783  2.526500  2.964480 10.828100
105  1  0.7565  3.767680  6.975600 10.619300
106  1  0.7862  6.144760 10.203000 10.127500
107  1  0.8025  8.824270 14.285400 11.369100
108  1  0.7176 10.283300 17.776000 10.861200
109  1  0.8218  4.922990 21.299700 11.618500
110  1  0.7047  6.457260  3.911330 10.556900
111  1  0.7839  8.450280  6.989310 11.288000
112  1  0.8404 10.328600 10.332700 11.499100
113  1  0.7983 12.675700 14.186600 11.063400
114  1  0.7333 14.307400 17.525500 10.814100
115  1  0.7213  8.777610 21.337500 11.674900
116  1  0.7606 10.991400  3.678300 10.935200
117  1  0.7772 13.135000  6.398770 10.741600
118  1  0.7524 14.938100  9.953120 10.660900
119  1  0.8353 12.682500 21.278100 11.165200
120  1  0.7269 15.277800  2.710750 11.460000
121  1  0.8605  0.351814 13.657400 16.534700
122  1  0.8156  2.035250 17.831400 16.388100
123  1  0.8880  0.311710  6.851370 16.660100
124  1  0.8467  2.684040 10.592000 16.371400
125  1  0.8096  3.906600 13.746000 16.115300
126  1  0.7370  6.365050 17.705400 17.163400
127  1  0.8726  0.433968 21.163600 16.614500
128  1  0.8293  2.148230  3.236660 17.558500
129  1  0.8636  4.811020  6.627610 17.002600
130  1  0.8548  6.441370 10.439800 16.920300
131  1  0.7383  8.685920 13.881200 17.330100
132  1  0.7946 10.311400 17.272000 17.232300
133  1  0.7264  4.360650  0.113903 17.073000
134  1  0.7043  6.385410  2.915750 17.161800
135  1  0.8223  8.555000  6.062090 16.596500
136  1  0.7841 10.762700 10.267000 17.072200
137  1  0.8347 12.858900 13.726800 16.000200
138  1  0.8513 14.870100 17.983500 17.535400
139  1  0.7441  8.231940  0.052132 16.166600
140  1  0.7980 11.126300  2.980680 16.924600
141  1  0.7901 12.757300  6.600590 17.240300
142  1  0.8747 14.928700 10.491700 17.013700
143  1  0.7910 12.650500 21.277000 17.513200
144  1  0.7994 15.215700  3.220910 16.649100
145  2 -0.9174 16.510700 14.154800 27.878400
146  2 -0.7957  2.222150 17.778300 28.006800
147  2 -0.8514  0.290811  6.736590 28.209100
148  2 -0.8149  2.486680 10.097000 28.195700
149  2 -0.8970  4.548030 13.444300 28.061800
150  2 -0.7011  5.913480 17.665000 28.138300
151  2 -0.8739  0.258526 21.156800 27.940500
152  2 -0.9880  2.425800  2.957600 28.222800
153  2 -0.7558  4.419690  7.536000 28.424400
154  2 -0.7255  6.604080 10.246500 28.231900
155  2 -0.8760  8.322060 14.314100 28.094900
156  2 -0.8196 10.280100 17.481300 27.929800
157  2 -0.7817  4.469900 20.779200 27.771200
158  2 -0.9250  6.851510  3.199570 28.309000
159  2 -0.8723  8.539970  6.754960  0.058663
160  2 -0.8264 10.193500 10.495100 28.121200
161  2 -0.7276 12.585700 14.065600 27.925700
162  2 -0.8339 14.268900 17.617400 28.112600
163  2 -0.9046  8.241480 21.084400 27.547700
164  2 -0.8589 10.937500  2.933920 28.469300
165  2 -0.7935 12.596700  6.959370  0.093647
166  2 -0.8359 14.667300 10.758000 27.445900
167  2 -0.8637 12.638900 20.765000  0.022922
168  2 -0.7133 14.727300  2.730370 28.297600
169  2 -0.4988  2.104050 15.284900 25.005700
170  2 -0.2437  4.833440 18.157400 24.475300
171  2 -0.3360  2.353980  8.059040 25.033100
172  2 -0.3912  4.426780 11.785300 24.327100
173  2 -0.4850  6.384730 14.804500 24.347200
174  2 -0.3314  8.470960 18.380600 24.497500
175  2 -0.3320  2.455580  0.921806 24.778800
176  2 -0.3632  4.286100  4.722090 25.022200
177  2 -0.3671  6.159540  7.912790 24.954700
178  2 -0.4269  8.425010 11.416100 24.556800
179  2 -0.3480 10.386600 15.414400 24.440800
180  2 -0.4620 12.576800 19.121200 24.828400
181  2 -0.2960  6.729990  0.966029 24.588700
182  2 -0.2557  8.637290  3.982850 24.765600
183  2 -0.3802 10.606300  7.835950 24.619900
184  2 -0.3925 12.647300 12.148100 24.837500
185  2 -0.2610 13.971300 15.382400 24.427000
186  2 -0.4219 16.444000 18.191100 24.768700
187  2 -0.3159 10.361800  0.497869 24.890500
188  2 -0.4777 12.730000  4.273250 26.123900
189  2 -0.3359 14.483400  7.600710 24.666200
190  2 -0.2955  0.523988 11.997100 24.311500
191  2 -0.4567 15.056900  0.660617 25.032400
192  2 -0.3538  0.039081  4.921960 24.720400
193  2 -0.3817 16.012700 13.926700 22.044000
194  2 -0.3996  2.310430 17.566400 21.639900
195  2 -0.3885  0.440890  7.309440 21.690700
196  2 -0.4135  2.323930 10.442800 22.184500
197  2 -0.3779  3.642340 14.063500 21.702000
198  2 -0.4451  6.185870 17.376600 21.533400
199  2 -0.3627  0.713086 20.605000 22.226700
200  2 -0.4893  2.358230  3.268750 22.018200
201  2 -0.3192  4.286440  6.645610 22.498200
202  2 -0.3949  6.829630 10.157900 22.372200
203  2 -0.4378  8.822860 13.535900 21.513800
204  2 -0.4561 10.542400 17.263600 21.922600
205  2 -0.4194  4.299310 21.061500 22.108500
206  2 -0.3823  6.472950  3.536250 22.464500
207  2 -0.4233  8.570460  7.066130 22.179400
208  2 -0.2268 10.491600 10.255700 22.412300
209  2 -0.3226 12.278000 13.572300 21.675600
210  2 -0.4429 14.738200 16.910300 21.775800
211  2 -0.3096  8.550070 20.943400 22.123200
212  2 -0.3302 10.643000  2.949070 22.221000
213  2 -0.4188 13.323500  6.975370 21.939500
214  2 -0.3484 14.209500 10.155100 21.792500
215  2 -0.3762 12.363900 20.999800 22.550600
216  2 -0.4024 14.787200  3.236490 22.394400
217  2 -0.8964  2.315860 12.636800  8.916160
218  2 -0.7909  4.174830 15.958300  9.965530
219  2 -0.9209  2.541440  5.066530  9.383790
220  2 -0.8872  4.306180  9.295910  8.473810
221  2 -0.8292  6.566540 13.112800  9.234890
222  2 -0.7311  8.044940 16.838000  9.496670
223  2 -0.7815  2.369410 18.817300  9.315280
224  2 -0.8322  4.411020  1.362590  9.437490
225  2 -0.8387  6.062090  6.022170  8.744090
226  2 -0.7706  8.325480  8.965620  9.020540
227  2 -0.7435 10.651700 12.312400  9.543150
228  2 -0.8629 12.475800 15.931100  8.987440
229  2 -0.7983  6.393300 19.615800  9.610040
230  2 -0.6983  8.699640  1.770310  9.499890
231  2 -0.8581 10.770400  6.113900  9.151310
232  2 -0.7608 12.764500  8.909530  8.920730
233  2 -0.8713 14.721500 12.784200  8.987520
234  2 -0.8165  0.249247 15.892900  9.683090
235  2 -0.7519 11.380200 20.249100  9.109230
236  2 -0.8693 12.370100  1.960860  9.210110
237  2 -0.8425 15.056500  5.627260  8.715260
238  2 -0.8613 16.542200  8.844800  8.776100
239  2 -0.7835 14.493800 19.910300  9.209140
240  2 -0.7690  0.598329  1.241800  9.250060
241  2 -0.2530  0.351350 14.348600  5.655320
242  2 -0.3942  2.390570 17.715300  5.786300
243  2 -0.3269  0.270002  6.541990  5.818760
244  2 -0.2659  2.079060 10.357000  5.635790
245  2 -0.3223  3.729500 14.552500  5.704430
246  2 -0.4396  6.904170 17.338000  6.386240
247  2 -0.4322  0.058397 21.267700  6.166650
248  2 -0.3354  2.224460  2.566500  5.808340
249  2 -0.4134  4.101880  6.614780  5.466440
250  2 -0.4818  6.243870 10.571000  5.650030
251  2 -0.3956  8.602090 13.914400  5.352790
252  2 -0.4775 10.433400 17.307200  6.472010
253  2 -0.3702  4.627950 21.314400  5.601770
254  2 -0.3596  6.214170  3.100190  5.831000
255  2 -0.4880  8.508460  6.759650  5.960470
256  2 -0.3766 10.679800 10.386200  5.364640
257  2 -0.4197 13.081000 13.369400  5.530940
258  2 -0.4399 14.584200 17.146600  5.492250
259  2 -0.3937  8.655920 21.465300  6.249450
260  2 -0.4060 10.136700  3.210000  6.369930
261  2 -0.4473 12.881100  6.587850  5.853830
262  2 -0.2725 15.245600 10.794200  5.442260
263  2 -0.3311 12.484100 21.560200  5.642400
264  2 -0.2982 14.709500  3.063960  5.557840
265  2 -0.3025  1.988090 12.815000  3.090590
266  2 -0.3749  4.743840 16.997200  2.780540
267  2 -0.4247  2.073840  5.128290  3.262960
268  2 -0.3557  4.633940  8.934100  3.398640
269  2 -0.3841  6.137160 13.233200  3.339870
270  2 -0.3637  8.136340 16.839400  2.972640
271  2 -0.3625  2.117520 20.176300  3.455270
272  2 -0.4530  4.117090  1.649130  3.044820
273  2 -0.3739  6.282880  5.923750  3.672690
274  2 -0.4013  8.549130  9.664570  3.310800
275  2 -0.4296 11.042100 13.132900  2.741360
276  2 -0.3848 12.894200 16.166200  3.291420
277  2 -0.4060  6.624810 20.207200  3.038940
278  2 -0.3691  9.075040  1.813850  3.415280
279  2 -0.4756 10.373400  6.160880  3.217080
280  2 -0.3653 13.068700  9.292040  3.407470
281  2 -0.2711 14.848000 12.585500  2.623660
282  2 -0.3730  0.418391 16.802500  3.017460
283  2 -0.2968 10.393500 20.262200  3.661380
284  2 -0.3497 12.328500  2.108380  3.393150
285  2 -0.4061 15.137000  5.268230  2.684810
286  2 -0.3116  0.379302  8.768460  3.279850
287  2 -0.4688 14.708500 19.895900  3.183450
288  2 -0.3391 16.557000  1.901320  3.141860
289  2 -0.7877  1.893750 15.028100 17.808800
290  2 -0.8445  4.286380 18.886400 18.365300
291  2 -0.7152  2.840430  7.892360 18.213400
292  2 -0.7962  4.386880 11.625300 18.831300
293  2 -0.7238  5.998180 15.018000 18.790300
294  2 -0.6770  8.851930 19.738000 18.782900
295  2 -0.9151  2.094810  0.705438 18.578400
296  2 -0.9371  4.656940  4.213680 18.723200
297  2 -0.8066  6.242130  8.146980 18.717100
298  2 -0.8379  8.601110 10.968800 18.285900
299  2 -0.9197 10.792700 15.202600 18.507800
300  2 -0.8783 12.889700 18.754700 19.197700
301  2 -0.8913  6.704700  0.470333 18.692100
302  2 -0.7781  9.034640  4.293960 18.292100
303  2 -0.8539 10.593300  7.614020 18.752600
304  2 -0.9229 13.223400 11.523800 18.194900
305  2 -0.7971 14.871700 15.098800 18.513800
306  2 -0.7534  0.522668 18.901900 18.516100
307  2 -0.6673 10.623100  0.914411 19.329100
308  2 -0.8776 13.303200  3.792800 18.455700
309  2 -0.8508 15.018300  7.886150 18.335000
310  2 -0.9194  0.761739 11.238100 18.149900
311  2 -0.7652 15.273900  0.070241 18.624900
312  2 -0.9133  0.541436  4.800430 18.514900
313  2 -0.5080  1.938420 12.348000 14.942500
314  2 -0.4280  4.286400 16.521800 15.505000
315  2 -0.2107  2.344340  5.759410 15.073400
316  2 -0.3461  5.141530  9.089970 15.167900
317  2 -0.3105  6.858830 13.114500 15.183400
318  2 -0.3758  8.489430 16.528000 15.426400
319  2 -0.4786  2.444780 20.544900 15.285500
320  2 -0.4160  4.008150  2.689130 15.714900
321  2 -0.3484  6.257260  5.362460 15.117600
322  2 -0.3466  8.600580  9.172910 15.506100
323  2 -0.4827 10.200200 13.098600 15.503700
324  2 -0.2796 12.713500 17.027800 15.684300
325  2 -0.3567  6.253080 19.963800 14.682800
326  2 -0.3694  9.179820  2.363820 14.949000
327  2 -0.3201 11.068700  5.391930 15.222000
328  2 -0.3668 12.659500  8.782800 15.554600
329  2 -0.4151 14.736500 12.056300 15.072800
330  2 -0.3485 16.017600 15.920500 15.399400
331  2 -0.3754 10.602500 19.995300 15.872600
332  2 -0.3519 13.523000  1.464610 15.206900
333  2 -0.3760 14.988800  5.525250 15.371600
334  2 -0.2435  0.420741  9.283310 14.825300
335  2 -0.3773 14.178000 19.966500 15.951000
336  2 -0.3405  0.773498  2.450410 15.246300
337  2 -0.3706  2.521320 14.609700 12.780200
338  2 -0.3755  4.308610 18.450700 12.955700
339  2 -0.3081  2.489320  8.270030 12.771900
340  2 -0.3849  4.170570 11.338500 12.447400
341  2 -0.3961  6.127590 14.978700 12.225800
342  2 -0.4146  8.398330 18.733800 12.728700
343  2 -0.4017  2.718110  0.562523 12.265000
344  2 -0.2441  4.182480  4.515960 12.560500
345  2 -0.4184  6.061720  8.156170 12.061000
346  2 -0.3702  8.081460 11.271700 12.344400
347  2 -0.4067 10.740400 15.231400 12.908200
348  2 -0.3618 12.281000 18.992600 12.655800
349  2 -0.3923  6.598720  2.042600 12.458500
350  2 -0.3914  8.618610  4.952510 12.711800
351  2 -0.3336 10.961100  8.003300 12.667900
352  2 -0.3584 12.880100 11.444100 12.505200
353  2 -0.4733 14.785800 14.855800 12.332000
354  2 -0.3633 16.034000 18.310000 12.933200
355  2 -0.4177 10.399800  1.568890 12.544700
356  2 -0.3750 12.989300  4.643860 12.754700
357  2 -0.3320 14.761300  7.411020 12.565400
358  2 -0.4116  0.197773 11.106700 12.453700
359  2 -0.4513 15.081300  0.408515 12.521300
360  2 -0.4259  0.384337  4.605280 12.326000

