Generated by pymatgen.io.lammps.data.LammpsData

216  atoms

  2  atom types

0.000000 18.096178  xlo xhi
0.000000 18.140645  ylo yhi
0.000000 18.233787  zlo zhi

Masses

1  208.9804
2   78.9600

Atoms

1    1  0.8143 -0.337166 17.731800 -0.550169
2    1  0.8189 -0.204994 18.148000  6.344170
3    1  0.8875 -0.078317 -0.084856 11.747400
4    1  0.6744  0.197357  5.409720 17.427600
5    1  0.8661  0.296144  6.123110  5.519390
6    1  0.6842  0.423436  5.656680 11.495400
7    1  0.8507 17.663500 12.452800 17.697900
8    1  0.7475 18.670100 11.850700  5.701140
9    1  0.7652 18.242400 11.572800 11.745000
10   1  0.7533  5.714430 -0.029862 17.813500
11   1  0.7521  5.881680 -0.311865  5.784820
12   1  0.7454  5.624080  0.295103 11.353900
13   1  0.7114  6.023320  5.528380 17.724600
14   1  0.8323  5.972550  5.893410  5.597170
15   1  0.8125  5.912390  6.477590 11.570300
16   1  0.7219  6.580900 12.540900 17.243100
17   1  0.7989  6.702240 11.695500  4.826270
18   1  0.7969  6.378220 12.265900 11.624700
19   1  0.9496 12.138100 18.272000 17.208800
20   1  0.7432 12.389900 -0.234917  5.371320
21   1  0.6443 12.233900 17.938800 11.278000
22   1  0.6892 11.935000  5.989840 17.467700
23   1  0.7502 11.895200  5.991970  5.287390
24   1  0.7693 12.369900  5.870710 11.302000
25   1  0.7980 11.916400 12.035900 17.806500
26   1  0.7455 12.103600 11.456500  5.124330
27   1  0.7611 11.995700 11.977400 11.221000
28   1  0.7216 17.997800  2.752330  2.227490
29   1  0.7978 18.160600  2.831200  9.182430
30   1  0.7314 18.691300  3.549860 14.549400
31   1  0.7443 18.111200  8.554040  2.363780
32   1  0.6460 17.715500  8.992910  9.144370
33   1  0.8595 17.687600  9.301110 15.137700
34   1  0.8569  0.275563 15.216400  2.589130
35   1  0.8510 17.751800 15.286600  8.723910
36   1  0.7862  0.047835 14.893900 14.313300
37   1  0.7862  6.017200  3.117690  2.876600
38   1  0.7579  5.894390  2.674660  8.572580
39   1  0.8286  5.380450  3.486400 14.036300
40   1  0.7333  5.828820  9.451910  2.158810
41   1  0.8155  6.165860  8.681990  8.705050
42   1  0.8677  5.734880  9.354580 14.635800
43   1  0.6513  6.027240 15.395700  2.964630
44   1  0.7254  5.764430 14.503700  8.647640
45   1  0.7960  6.213350 15.593500 13.985100
46   1  0.7618 11.508100  3.042310  1.897520
47   1  0.7537 12.367400  3.395000  8.541390
48   1  0.7153 12.303400  2.968000 14.143900
49   1  0.7355 12.464300  9.134480  2.521700
50   1  0.7853 12.116700  8.764670  9.062150
51   1  0.7597 11.816400  9.221370 15.337700
52   1  0.6868 12.542400 15.204200  2.185280
53   1  0.7343 11.525500 15.195300  7.575980
54   1  0.8150 12.374700 15.392100 14.667300
55   1  0.7267  3.199990 17.644900  2.985140
56   1  0.6889  3.035500 17.922900  8.771410
57   1  0.7607  2.328180 -0.397151 14.723200
58   1  0.8155  3.139870  5.935440  2.724230
59   1  0.8154  3.172610  6.318950  8.686820
60   1  0.6214  2.474690  6.350090 15.213900
61   1  0.7412  3.006100 11.461300  2.283350
62   1  0.8487  3.310110 11.672300  8.718550
63   1  0.9155  3.309700 12.000200 14.350200
64   1  0.7516  9.535280 17.896900  2.343510
65   1  0.7839  8.646530 17.653800  8.366990
66   1  0.8331  9.014160 18.439700 14.664800
67   1  0.6908  9.294670  5.139130  2.809230
68   1  0.6494  9.666330  5.970570  8.409670
69   1  0.8766  8.763290  6.036440 14.215200
70   1  0.7200  9.646980 11.952500  2.389560
71   1  0.8243  9.349450 11.769900  8.370530
72   1  0.7479  9.380660 12.392700 14.543200
73   1  0.7385 14.783300 17.505000  2.461940
74   1  0.7291 14.500100 17.804900  8.277120
75   1  0.7933 15.223400 18.605100 14.899800
76   1  0.7912 14.783300  5.641520  2.461070
77   1  0.7574 15.164600  5.856020  8.741590
78   1  0.8636 15.171200  6.359500 15.337400
79   1  0.7795 15.379400 11.508900  3.090230
80   1  0.7369 15.006800 11.769200  8.599740
81   1  0.7716 14.859900 12.238600 15.147200
82   1  0.7126  3.678200  2.495590 18.570300
83   1  0.8128  3.059800  2.746700  5.783630
84   1  0.8312  3.076720  3.192140 11.277900
85   1  0.7821  3.255700  9.502850 17.529200
86   1  0.7534  3.352780  8.584800  6.235500
87   1  0.6528  2.590340  8.689770 11.934500
88   1  0.7132  3.517150 15.224500 17.791000
89   1  0.8377  2.772500 14.809600  5.655750
90   1  0.6853  2.892080 15.233000 11.374600
91   1  0.6586  8.628680  3.366950 18.314500
92   1  0.6901  9.482160  3.364970  6.400810
93   1  0.8650  8.732920  2.732040 11.928800
94   1  0.8743  8.806850  9.115590 17.702100
95   1  0.8256  9.307620  8.806030  5.559870
96   1  0.7778  9.105370  8.691450 11.632600
97   1  0.7436  8.369310 15.634100 17.776400
98   1  0.6963  9.237370 14.755700  5.324990
99   1  0.8042  9.334660 14.670300 11.532300
100  1  0.8327 15.219400  2.840960 18.276300
101  1  0.9290 15.645300  2.912630  5.522570
102  1  0.6408 14.557600  2.838760 11.944400
103  1  0.7014 15.138100  8.907240 18.254600
104  1  0.7975 15.913400  8.559000  6.320120
105  1  0.8026 15.041500  8.405860 11.225700
106  1  0.7000 15.171000 15.378600 18.194700
107  1  0.8072 15.193900 15.409100  5.304490
108  1  0.7600 14.833000 15.088800 11.316700
109  2 -0.7857  3.080980 18.027800 18.340200
110  2 -0.8123  2.747240 17.999000  6.013870
111  2 -0.8445  2.787650  0.112187 11.726500
112  2 -0.8034  3.378050  5.927320 18.173900
113  2 -0.8213  3.428750  5.867100  5.589050
114  2 -0.8923  3.418900  5.830450 11.320100
115  2 -0.6242  2.222180 12.361600 -0.677525
116  2 -0.7211  3.234920 11.985600  6.168280
117  2 -0.7651  2.768030 12.056700 11.766200
118  2 -0.7073  9.402640  0.159010 17.379500
119  2 -0.5961  8.972870  0.619685  5.561190
120  2 -0.6631  8.711680 17.584900 12.074400
121  2 -0.7337  8.740390  6.074580 17.036800
122  2 -0.8418  8.933650  6.355330  5.309050
123  2 -0.7696  9.093540  5.623730 11.869900
124  2 -0.7948  9.403660 12.241400 17.310200
125  2 -0.8475  9.265310 11.942400  5.230780
126  2 -0.7870  8.982010 11.637300 11.643200
127  2 -0.8093 14.964000  0.226080 18.115100
128  2 -0.8527 15.446300 18.289300  5.469360
129  2 -0.7776 15.019000 -0.440426 11.554900
130  2 -0.8508 15.634700  6.177700 17.771200
131  2 -0.6451 15.649300  5.695230  5.649820
132  2 -0.7078 15.210600  5.700690 12.196200
133  2 -0.7690 14.780100 11.616100 18.342300
134  2 -0.7019 15.621600 12.064600  5.634210
135  2 -0.7238 14.556900 11.787800 11.506400
136  2 -0.8094  3.199680  2.810110  2.972310
137  2 -0.8050  3.074970  3.229040  8.817500
138  2 -0.7204  2.932330  2.714530 15.205600
139  2 -0.8040  2.949560  8.935730  2.353410
140  2 -0.8734  2.919780  9.070270  8.760180
141  2 -0.8538  3.058420  9.416280 14.936100
142  2 -0.7912  2.982310 14.681900  2.527760
143  2 -0.7625  2.219600 15.088000  8.219170
144  2 -0.7661  2.846850 14.596000 13.930900
145  2 -0.8356  8.787020  2.516710  2.597490
146  2 -0.7102  9.307940  2.520370  9.137980
147  2 -0.6910  8.500500  3.251820 14.300300
148  2 -0.6433  8.641020  8.392740  2.256610
149  2 -0.8008  9.166150  9.016100  8.829550
150  2 -0.6821  8.614690  9.140790 15.121400
151  2 -0.8111  8.972350 14.914300  2.304670
152  2 -0.7398  8.466850 14.427500  8.115100
153  2 -0.6531  9.748200 15.690800 14.976400
154  2 -0.7133 14.889800  2.746880  2.717570
155  2 -0.7700 14.801400  2.947350  8.105220
156  2 -0.6832 15.158200  3.346760 15.073500
157  2 -0.7555 14.808500  8.588160  3.443240
158  2 -0.9619 15.014600  8.579360  8.570430
159  2 -0.7011 14.886700  9.417220 15.190200
160  2 -0.8507 15.542500 14.796200  2.770770
161  2 -0.7513 14.564700 15.091400  8.259730
162  2 -0.7732 15.122300 14.974000 15.280200
163  2 -0.7247  0.210457 17.824600  2.334520
164  2 -0.8035 17.674400 18.011500  8.984490
165  2 -0.8148 -0.298930 -0.292665 14.358600
166  2 -0.7426 17.444700  5.679560  2.634600
167  2 -0.7690 18.225100  6.036650  8.440290
168  2 -0.8179 17.913700  6.304810 14.766400
169  2 -0.6613 18.307200 11.844300  1.967550
170  2 -0.7372  0.519813 11.835100  8.606600
171  2 -0.7146 18.361500 12.039200 14.374400
172  2 -0.7876  6.136690 18.484300  2.514770
173  2 -0.8967  6.019960 17.683400  8.356910
174  2 -0.5863  5.691440  0.151164 14.397200
175  2 -0.7626  5.569780  5.938640  2.662560
176  2 -0.7989  5.966550  6.019650  8.879430
177  2 -0.7712  5.707010  6.430680 14.261200
178  2 -0.8272  6.276440 12.261300  2.436360
179  2 -0.6820  6.249200 11.405600  8.547720
180  2 -0.8013  5.942280 12.182400 14.502900
181  2 -0.7537 12.247100  0.364460  2.107930
182  2 -0.7615 11.503500 17.947500  8.139010
183  2 -0.8306 12.641000 18.180600 14.592400
184  2 -0.8696 11.864300  5.815160  2.105260
185  2 -0.9052 12.327500  6.126680  8.391360
186  2 -0.6561 12.009600  6.538240 14.502000
187  2 -0.8365 12.374700 12.086700  2.190870
188  2 -0.7343 12.175900 11.930200  7.956700
189  2 -0.7734 12.276400 12.319300 14.603600
190  2 -0.7597 -0.472120  2.328700 17.660300
191  2 -0.7159 18.188600  3.059290  6.276060
192  2 -0.8571 18.269000  2.979710 11.721900
193  2 -0.7199 18.132400  9.273630 17.713500
194  2 -0.8311  0.478682  8.520590  5.327420
195  2 -0.8005 17.689300  8.813620 12.206400
196  2 -0.7809 18.063500 15.054100 17.816500
197  2 -0.7278  0.066597 15.229100  5.589190
198  2 -0.7639 -0.350666 15.366500 11.327500
199  2 -0.6911  6.088510  2.557360 16.811300
200  2 -0.7236  6.122760  2.668780  5.548500
201  2 -0.8364  5.765110  2.882860 11.428500
202  2 -0.7729  6.177450  9.855670 17.490700
203  2 -0.7186  6.582680  8.606400  5.945400
204  2 -0.7453  6.579750  9.480790 11.897400
205  2 -0.8556  5.958180 15.655800 16.497500
206  2 -0.7334  5.791870 14.536300  5.556620
207  2 -0.8394  6.950390 15.099100 11.505800
208  2 -0.7682 12.035600  2.646680 17.459400
209  2 -0.6583 12.313000  2.937650  5.603580
210  2 -0.8832 11.801800  3.393790 11.635400
211  2 -0.8241 11.568100  8.955740 18.242900
212  2 -0.7326 11.998400  8.620710  5.957920
213  2 -0.7560 12.530200  8.626180 11.795600
214  2 -0.6888 11.973600 15.748700 17.359300
215  2 -0.8941 12.302900 15.311700  4.984820
216  2 -0.7884 11.752400 14.713400 10.815700

