Generated by pymatgen.io.lammps.data.LammpsData

216  atoms

  2  atom types

0.000000 18.096178  xlo xhi
0.000000 18.140645  ylo yhi
0.000000 18.233787  zlo zhi

Masses

1  208.9804
2   78.9600

Atoms

1    1  0.7856 17.746400 17.599200 17.668700
2    1  0.6830 18.507200 17.572800  5.359710
3    1  0.8640 18.165700 17.920200 12.229000
4    1  0.7300  0.112380  5.595740 17.933500
5    1  0.8464  0.760479  5.886240  5.483990
6    1  0.7192  0.038833  5.643150 11.761700
7    1  0.8290  0.452746 11.982800 -0.480651
8    1  0.8055 18.157500 12.192200  5.729760
9    1  0.7325  0.615792 11.607500 12.012100
10   1  0.6826  5.750420 17.492900 17.253500
11   1  0.8511  6.160830 17.606800  5.671030
12   1  0.8864  6.225620 17.598000 11.726300
13   1  0.7910  5.703890  5.713530 18.151400
14   1  0.7971  6.156790  5.465820  6.345690
15   1  0.7683  6.273400  5.713680 11.841600
16   1  0.6474  5.791770 11.179900 17.472100
17   1  0.7201  6.754970 12.194000  5.621140
18   1  0.8490  6.893780 11.914600 11.237500
19   1  0.7893 12.002800 17.196600 17.473200
20   1  0.7632 12.489100 17.650600  5.326630
21   1  0.7321 12.350700 17.661300 12.201400
22   1  0.7770 11.642000  4.993020 17.981100
23   1  0.6630 12.675700  5.100780  5.170040
24   1  0.7822 12.101700  5.576140 11.846400
25   1  0.7457 12.485900 11.181400 17.311100
26   1  0.7657 11.832900 11.240000  5.695150
27   1  0.7859 12.191600 11.661400 11.761700
28   1  0.7956 -0.040176  2.133000  2.908130
29   1  0.7974  0.435819  3.296160  8.709230
30   1  0.8181 17.969100  2.924840 14.670500
31   1  0.7745 17.944400  9.195740  2.689760
32   1  0.6879 18.044800  9.288300  9.045190
33   1  0.8049 18.052800  8.246350 14.741600
34   1  0.7995 18.057400 14.588300  3.056980
35   1  0.8479 18.697100 14.999900  8.845260
36   1  0.7101 18.194000 15.076000 14.714800
37   1  0.7553  5.709410  2.929860  2.521110
38   1  0.8090  6.068350  2.897210  8.581870
39   1  0.7683  5.974890  2.168370 14.448200
40   1  0.7324  6.058950  8.988540  3.270210
41   1  0.8379  6.241850  8.854760  8.838650
42   1  0.7461  6.239580  8.116830 14.922000
43   1  0.7770  6.910910 14.658100  2.658580
44   1  0.8692  5.720610 15.274600  8.356850
45   1  0.7382  6.011280 14.759500 14.359100
46   1  0.7297 11.953700  2.343870  2.605870
47   1  0.8046 12.834200  2.957060  8.961260
48   1  0.7654 11.769700  2.007770 15.014200
49   1  0.8060 12.097900  8.315800  2.277530
50   1  0.7829 11.964600  8.976180  8.570370
51   1  0.7125 12.371900  8.369250 14.458500
52   1  0.7421 12.312100 14.175800  2.477630
53   1  0.6681 12.355000 14.839000  8.848970
54   1  0.7832 11.721100 14.812900 14.707500
55   1  0.7531  2.675150 18.253900  2.040860
56   1  0.8305  3.292280 18.091300  8.359020
57   1  0.8069  2.874340 18.047300 14.492400
58   1  0.7901  3.078800  5.828980  2.457310
59   1  0.8117  3.040270  6.179700  8.954710
60   1  0.7760  2.909450  5.728190 15.054300
61   1  0.7282  2.888850 12.429200  3.088360
62   1  0.8215  2.700400 11.876900  8.717900
63   1  0.6563  3.163740 12.372500 14.999800
64   1  0.7452  9.671410 17.323900  2.718630
65   1  0.7370  9.896930 -0.283392  9.474690
66   1  0.8196  9.117740 18.001300 14.423400
67   1  0.8095  8.891360  4.946860  2.956470
68   1  0.7830  8.603680  5.752400  9.054560
69   1  0.7895  9.257680  5.379320 14.427900
70   1  0.7208  9.202170 11.322000  2.307120
71   1  0.7030  9.125920 11.995200  8.281550
72   1  0.8398  8.874050 11.892600 14.974000
73   1  0.7986 15.116500 17.716400  2.863700
74   1  0.8090 15.694000 18.268300  8.417540
75   1  0.8158 15.475800 17.658100 15.059100
76   1  0.7318 15.548900  5.340270  3.353680
77   1  0.7601 15.245100  5.748350  8.493750
78   1  0.7096 15.193500  6.069340 14.205000
79   1  0.7998 14.715700 11.348300  2.438550
80   1  0.7317 14.530100 12.332000  8.019380
81   1  0.8642 15.188700 11.383500 14.815600
82   1  0.8783  3.072290  2.653080 17.807300
83   1  0.7588  3.073510  2.874370  6.037470
84   1  0.8485  3.437380  2.735750 11.658100
85   1  0.7040  3.033680  9.205990 17.796000
86   1  0.7644  3.001830  8.774800  5.691620
87   1  0.8049  2.767600  9.155520 11.498800
88   1  0.8096  2.586440 15.418800  0.021173
89   1  0.7656  3.053950 14.645300  5.793370
90   1  0.7424  3.753100 14.804200 11.569900
91   1  0.6731  8.242410  1.976950  0.063792
92   1  0.8898  9.016750  2.609460  5.672920
93   1  0.8634  8.969370  2.290330 11.625400
94   1  0.7351  8.284140  8.428300  0.889246
95   1  0.9126  9.834430  8.328740  5.798910
96   1  0.6985  8.998200  9.187400 11.115200
97   1  0.7380  9.365760 14.811800 17.883600
98   1  0.7932  9.051940 15.236500  5.751670
99   1  0.8099  9.382590 15.109200 11.394400
100  1  0.8310 15.048600  2.465620 17.768700
101  1  0.6037 15.598000  2.801850  5.966590
102  1  0.8358 15.038200  2.348080 12.210000
103  1  0.6838 14.637400  8.143240 17.266800
104  1  0.7575 15.143800  9.110830  4.909160
105  1  0.7480 14.627300  9.315000 11.496400
106  1  0.7833 15.300900 14.372000 18.118000
107  1  0.8173 15.491300 15.076000  5.552820
108  1  0.8049 15.478500 15.216800 11.436600
109  2 -0.8437  2.691440 17.949100 17.306500
110  2 -0.7754  3.284800 17.572400  5.430160
111  2 -0.6949  3.073310 18.299800 11.436700
112  2 -0.8568  2.873940  5.029210 17.668200
113  2 -0.8281  3.287870  5.699190  5.790710
114  2 -0.7399  3.371360  6.230670 11.454100
115  2 -0.8029  3.146190 11.952900 -0.232674
116  2 -0.8042  3.035540 11.838600  5.905850
117  2 -0.7304  3.644680 11.951900 11.239400
118  2 -0.8292  8.770230 17.501300 17.420300
119  2 -0.6871  9.183350 18.168800  5.911350
120  2 -0.9813  9.367880 17.636900 11.888000
121  2 -0.6897  9.088540  5.723240  0.318144
122  2 -0.6972  8.924870  5.525400  5.785340
123  2 -0.8064  9.189260  5.016980 11.866100
124  2 -0.7287  9.583180 12.090300 17.524300
125  2 -0.8001  9.209630 10.933800  5.076940
126  2 -0.8226  9.346230 12.357000 11.303100
127  2 -0.7262 14.949700 17.844200 18.082700
128  2 -0.8612 14.990400 17.745800  5.741770
129  2 -0.8207 15.491100 17.662900 12.164000
130  2 -0.7134 14.914900  5.622020 17.910600
131  2 -0.7961 15.692200  6.045430  5.855230
132  2 -0.7701 14.928400  5.296090 11.888200
133  2 -0.7370 15.430300 10.954200 17.803900
134  2 -0.7504 15.114800 12.068600  5.261910
135  2 -0.6440 15.417100 12.097600 12.398000
136  2 -0.7728  2.890210  2.826530  2.711360
137  2 -0.8343  3.163100  2.659000  8.969620
138  2 -0.7596  3.100370  2.721540 14.911600
139  2 -0.7456  3.075160  8.564000  2.641290
140  2 -0.7772  3.104940  9.289450  8.526290
141  2 -0.7125  2.519550  8.879590 14.103600
142  2 -0.7440  2.960540 15.229300  2.353290
143  2 -0.8898  3.281330 14.753900  8.484110
144  2 -0.8628  2.858100 15.165900 14.582400
145  2 -0.8336  9.148990  2.153940  3.041990
146  2 -0.7221  8.634330  2.859440  8.797020
147  2 -0.8636  9.047560  2.364600 14.192100
148  2 -0.7123  9.443480  7.909260  3.140630
149  2 -0.8715  9.185260  8.614470  8.403680
150  2 -0.6497  8.526030  8.618550 14.459400
151  2 -0.8761  9.505990 14.588400  3.033400
152  2 -0.7688  8.892140 14.993500  8.414080
153  2 -0.7276  8.779490 14.949600 14.433500
154  2 -0.7939 15.304400  2.260610  2.847380
155  2 -0.7734 15.774400  2.774700  9.243080
156  2 -0.7821 15.028500  1.992570 14.848600
157  2 -0.7695 14.801500  8.464120  2.004800
158  2 -0.6826 14.896100  9.279720  8.381440
159  2 -0.8940 15.201400  8.663980 14.019000
160  2 -0.8113 15.167700 14.392700  2.437750
161  2 -0.6726 15.734600 15.462800  8.211340
162  2 -0.6634 15.435900 14.377200 15.115000
163  2 -0.8383 18.149900 17.550600  2.466270
164  2 -0.6793 18.553300 17.912200  9.021080
165  2 -0.8789 18.297700 18.400700 14.699000
166  2 -0.7315  0.096656  5.733640  3.022870
167  2 -0.8393  0.501852  5.873890  8.829420
168  2 -0.9042 18.360100  5.627900 14.885800
169  2 -0.8125 18.089400 12.094900  3.001570
170  2 -0.7465 17.563900 12.379100  8.478740
171  2 -0.6733  0.259752 11.697000 14.832800
172  2 -0.6522  6.337820 17.519200  2.578700
173  2 -0.7458  5.824550 18.172100  8.519490
174  2 -0.8728  6.167380 17.615500 14.197700
175  2 -0.7211  6.040830  5.986090  2.788830
176  2 -0.9007  6.015420  6.028840  9.118080
177  2 -0.7452  6.189090  5.250300 14.724300
178  2 -0.7957  6.312090 11.974100  2.837440
179  2 -0.6762  5.739450 11.650100  8.670050
180  2 -0.7206  6.719140 11.610800 13.994100
181  2 -0.8165 12.161700 17.771100  2.260690
182  2 -0.7041 12.793000 17.968500  8.771520
183  2 -0.8801 12.506700 17.578600 14.903200
184  2 -0.7754 12.103900  5.546310  2.498570
185  2 -0.6727 12.422100  5.838140  8.702820
186  2 -0.7758 12.227700  5.446910 14.838600
187  2 -0.8431 12.218900 11.265200  2.262220
188  2 -0.8827 11.765800 12.076500  8.236880
189  2 -0.7386 12.295600 11.418000 14.338700
190  2 -0.6905 17.865400  2.178540 18.299700
191  2 -0.8567  0.550958  3.141650  5.640450
192  2 -0.7072 -0.181922  2.748900 11.970400
193  2 -0.7196  0.416718  9.083410 17.669100
194  2 -0.7438 18.155500  9.139410  5.276560
195  2 -0.7687 17.856400  9.054180 11.820500
196  2 -0.8298 -0.008384 14.711000 18.291400
197  2 -0.8734  0.066665 14.970600  6.034190
198  2 -0.7538  0.301350 14.873000 11.745300
199  2 -0.8610  5.724800  2.849640 18.114900
200  2 -0.7683  6.344240  2.565570  5.438330
201  2 -0.7969  5.846610  2.197400 11.413200
202  2 -0.9072  5.893470  8.261170 17.966100
203  2 -0.6365  6.737900  8.100610  5.772000
204  2 -0.6792  5.924490  8.901870 11.424100
205  2 -0.6478  6.052800 14.093800 17.568900
206  2 -0.8768  6.338300 15.044600  5.818210
207  2 -0.8254  6.351430 15.140200 11.159300
208  2 -0.7263 11.981800  2.037700 17.777500
209  2 -0.7489 12.234900  2.273200  6.086170
210  2 -0.7550 12.058100  2.779800 11.309200
211  2 -0.6379 11.202200  8.501330 17.182300
212  2 -0.7692 12.455700  8.339190  5.754360
213  2 -0.8837 11.826200  9.047050 11.446100
214  2 -0.7760 12.186800 14.247400 17.507900
215  2 -0.6791 12.054500 14.390700  5.807400
216  2 -0.8066 12.598800 14.868600 12.028900

