Generated by pymatgen.io.lammps.data.LammpsData

216  atoms

  2  atom types

0.000000 18.096178  xlo xhi
0.000000 18.140645  ylo yhi
0.000000 18.233787  zlo zhi

Masses

1  208.9804
2   78.9600

Atoms

1    1  0.8423 18.288200 18.213400  0.518057
2    1  0.7060  0.064139  0.290267  6.355830
3    1  0.8371 18.169100 18.399300 12.527500
4    1  0.7149  0.256817  6.279850  0.258245
5    1  0.7761 18.266500  6.195780  6.849230
6    1  0.7893 18.322400  6.019250 12.276100
7    1  0.7848 18.058700 12.179700 18.385600
8    1  0.8480  0.157387 12.159200  6.512420
9    1  0.8078  0.466748 12.479000 12.194700
10   1  0.7863  6.183600 18.359200 18.268300
11   1  0.8499  6.181870  0.096132  6.260700
12   1  0.7581  6.404070  0.220785 12.454700
13   1  0.8523  6.447420  6.073430 18.437200
14   1  0.7948  6.268340  6.093770  6.304040
15   1  0.7523  6.081380  6.103330 12.090900
16   1  0.7994  6.262930 12.119600 18.668900
17   1  0.7506  5.835740 12.261200  6.108000
18   1  0.8308  6.458300 12.061700 12.125400
19   1  0.7906 12.717900 18.098500  0.332140
20   1  0.8402 12.336500 18.331600  6.513660
21   1  0.7731 12.397700  0.227597 12.189500
22   1  0.7715 12.350000  6.459180  0.477491
23   1  0.7732 11.849200  6.336130  6.368660
24   1  0.8090 12.597600  5.548870 12.588500
25   1  0.7845 12.472000 12.047200 18.434900
26   1  0.7676 12.123600 12.345500  6.188400
27   1  0.7394 11.852000 11.906500 12.340700
28   1  0.7338  0.177638  3.358280  3.504710
29   1  0.7524  0.406783  3.533620  9.280120
30   1  0.8028 18.544400  3.178120 15.162800
31   1  0.8076 18.071700  9.189800  3.443910
32   1  0.7958  0.385475  9.196050  9.381520
33   1  0.8333  0.386461  9.173230 15.213000
34   1  0.7225  0.209359 15.574500  3.627310
35   1  0.8153 18.301400 15.586500  9.374150
36   1  0.8106  0.396133 15.424100 15.388700
37   1  0.8252  6.159650  2.981410  3.222830
38   1  0.7894  6.425990  3.167900  9.353630
39   1  0.7689  6.434900  2.947820 15.439800
40   1  0.7413  6.732830  9.136750  3.292460
41   1  0.8242  6.151140  9.239660  9.334850
42   1  0.8132  6.370500  9.228770 15.260400
43   1  0.7612  6.144770 15.209200  3.486120
44   1  0.8100  6.105950 15.318600  9.072560
45   1  0.7901  5.948210 15.367300 15.582900
46   1  0.7645 12.113000  3.134220  3.661330
47   1  0.8325 12.460700  3.096260  9.535860
48   1  0.7351 12.476700  3.047500 15.345400
49   1  0.7997 12.249800  9.273370  3.115460
50   1  0.7750 12.300900  9.117970  9.150370
51   1  0.8346 12.043500  9.260790 15.292000
52   1  0.7472 12.357400 15.453800  3.057940
53   1  0.8834 12.049300 14.958600  9.200820
54   1  0.7721 12.266100 15.001500 15.255800
55   1  0.7428  2.825360 -0.097672  3.362370
56   1  0.8378  3.083260 18.543500  9.391450
57   1  0.8035  3.514580 18.326700 15.496100
58   1  0.7587  3.055510  6.204960  3.073560
59   1  0.7261  2.851080  6.377980  9.525900
60   1  0.8136  3.370950  6.554200 15.488100
61   1  0.7899  3.111230 12.309500  3.256070
62   1  0.8071  3.060840 12.285100  9.540300
63   1  0.8050  3.119510 12.737500 15.344300
64   1  0.8317  9.104510 18.074400  3.161290
65   1  0.8699  9.240980  0.128013  9.101610
66   1  0.8122  9.250940  0.286938 15.858500
67   1  0.6799  9.710460  5.831520  3.090200
68   1  0.7582  9.053100  6.223570  9.153580
69   1  0.7864  8.924120  6.198850 15.108100
70   1  0.8201  8.846780 12.451400  3.114930
71   1  0.7804  9.365240 12.269100  8.680830
72   1  0.7764  9.211710 12.230300 15.364000
73   1  0.7109 14.919500  0.139446  3.468020
74   1  0.7807 14.838200 -0.063031  9.521950
75   1  0.7965 15.437800 18.263100 15.614300
76   1  0.8539 15.450100  6.269290  3.442340
77   1  0.8545 14.995800  6.370060  9.394370
78   1  0.7965 15.255000  6.217190 15.505900
79   1  0.7706 15.351800 12.474400  3.242480
80   1  0.7944 15.222000 12.154900  9.143550
81   1  0.7933 15.326200 12.113400 15.457700
82   1  0.7486  3.005470  3.682420  0.025274
83   1  0.7905  3.149160  3.385450  6.207850
84   1  0.7291  3.273360  3.322450 12.023900
85   1  0.8313  3.446070  9.324360  0.320019
86   1  0.8314  3.164100  9.355140  6.356760
87   1  0.8198  3.364170  9.459360 12.080100
88   1  0.7473  3.286770 15.496300 -0.216146
89   1  0.7938  2.993280 15.478600  6.335870
90   1  0.8441  3.199390 15.359000 12.310000
91   1  0.7573  9.116800  3.326870  0.140365
92   1  0.7863  9.030520  2.978290  6.571340
93   1  0.7465  9.432820  2.770250 12.269500
94   1  0.8477  9.271970  9.272240 -0.088522
95   1  0.7604  9.261730  9.453430  6.248900
96   1  0.7420  9.311460  9.248880 11.973500
97   1  0.7552  9.288160 15.209500 -0.029983
98   1  0.8394  9.438860 15.326200  5.738800
99   1  0.8169  9.086620 15.110100 12.148200
100  1  0.7622 14.962800  2.971590  0.687905
101  1  0.7830 15.476700  3.228180  6.660420
102  1  0.7763 15.362700  3.006330 12.560100
103  1  0.7564 15.678300  8.833570  0.383165
104  1  0.8462 15.181400  9.044130  6.358550
105  1  0.8404 15.216500  9.299010 12.909200
106  1  0.8035 15.363400 15.065800 18.918700
107  1  0.8473 15.153400 14.956400  6.333610
108  1  0.7327 15.011100 14.994200 12.530800
109  2 -0.7512  3.309480  0.314611 18.411100
110  2 -0.7962  3.110930 18.240800  6.696120
111  2 -0.7486  2.920960  0.121986 12.246600
112  2 -0.8321  3.499220  6.683730 18.470300
113  2 -0.7458  3.390250  6.316490  6.324370
114  2 -0.8016  3.206790  6.630040 12.658500
115  2 -0.7556  3.292810 12.149700  0.199040
116  2 -0.7914  3.104570 12.438400  6.222230
117  2 -0.8144  3.510690 12.531800 12.388900
118  2 -0.7647  9.470980 18.426800 18.484000
119  2 -0.7740  9.225710  0.101528  6.395750
120  2 -0.7599  9.219550  0.024860 12.174300
121  2 -0.7950  9.240160  6.483560  0.105395
122  2 -0.8513  9.128280  6.111320  6.395390
123  2 -0.7306  9.407580  6.289060 12.179800
124  2 -0.7846  9.213980 12.174100 18.327500
125  2 -0.8445  9.369110 12.576200  5.922650
126  2 -0.8369  9.085220 12.012700 11.983800
127  2 -0.7908 15.463700 17.930100 18.334000
128  2 -0.7730 15.033100 18.008600  6.543140
129  2 -0.8242 15.284500 -0.104474 12.378900
130  2 -0.8013 15.268400  6.084020  0.436195
131  2 -0.7537 15.315700  6.235490  6.504900
132  2 -0.7575 15.433700  6.106070 12.687500
133  2 -0.8328 15.439100 12.080000  0.055400
134  2 -0.7942 15.278600 12.033200  6.386250
135  2 -0.7532 15.559500 11.898200 12.445200
136  2 -0.7647  3.316400  3.216470  3.162240
137  2 -0.8147  3.430490  3.064940  9.067830
138  2 -0.7608  3.358170  3.199560 15.208700
139  2 -0.7294  2.858860  9.307250  3.394480
140  2 -0.8586  3.181910  9.392210  9.304480
141  2 -0.6934  3.265930  9.434220 15.243100
142  2 -0.8658  3.248790 15.403600  3.804800
143  2 -0.7767  3.193200 15.429000  9.301760
144  2 -0.9230  3.087030 15.563900 15.355500
145  2 -0.7735  9.237180  2.845620  3.500820
146  2 -0.8324  9.525890  2.962180  9.446370
147  2 -0.8037  9.301950  3.164680 15.533600
148  2 -0.8026  9.305180  9.593860  3.360710
149  2 -0.8334  9.332310  9.481270  8.876430
150  2 -0.8248  9.215620  9.295280 15.416700
151  2 -0.8490  9.142110 15.233400  2.973690
152  2 -0.7167  9.350820 15.482600  8.994830
153  2 -0.7435  9.243540 15.199900 15.185700
154  2 -0.7728 15.094400  3.312290  3.669160
155  2 -0.7768 15.160600  3.694660  9.578710
156  2 -0.7690 15.681100  2.924520 15.482300
157  2 -0.8145 15.313500  8.950730  3.319550
158  2 -0.7715 15.173100  9.184140  9.245950
159  2 -0.7885 15.023300  8.984120 15.467100
160  2 -0.8950 15.362200 15.065700  3.380980
161  2 -0.7329 14.921600 15.177800  9.319910
162  2 -0.7329 15.217200 15.001400 15.474600
163  2 -0.8739 18.092900  0.246132  3.316200
164  2 -0.7346 -0.046120  0.241751  9.771330
165  2 -0.7209 18.222200 18.205800 15.807200
166  2 -0.8359  0.203249  6.164890  3.311370
167  2 -0.9443  0.270762  6.518800  9.514230
168  2 -0.7709  0.133348  6.284050 15.166200
169  2 -0.7573  0.087027 11.957900  3.623830
170  2 -0.8224  0.532518 12.502100  9.386210
171  2 -0.7498 18.527300 12.258900 15.510600
172  2 -0.7614  6.172970 18.303500  3.444600
173  2 -0.7552  6.356890 18.518100  9.132820
174  2 -0.9033  6.205110 18.206400 15.600800
175  2 -0.7544  6.458330  6.092230  2.870220
176  2 -0.8091  6.122240  6.076210  9.280260
177  2 -0.7829  6.145840  6.414540 15.435900
178  2 -0.8685  6.078970 12.078700  3.156500
179  2 -0.7517  6.285060 12.365600  9.379580
180  2 -0.7413  6.335600 12.435200 15.525700
181  2 -0.8171 12.077600 18.141400  3.367250
182  2 -0.7926 12.110500 -0.397301  9.299250
183  2 -0.7363 11.917400  0.112176 15.307000
184  2 -0.8092 12.525300  6.291100  3.267330
185  2 -0.7454 12.307600  5.937570  9.379320
186  2 -0.7356 12.129100  5.889100 15.355200
187  2 -0.7552 12.229800 12.301600  3.150100
188  2 -0.8193 12.309600 12.087400  9.252840
189  2 -0.8275 12.198400 11.968300 15.292100
190  2 -0.7243  0.224980  3.346810  0.096506
191  2 -0.8969  0.240892  3.445780  6.618270
192  2 -0.8348 18.336700  3.071990 12.272600
193  2 -0.7922 18.483300  9.311080 -0.134353
194  2 -0.7809 18.274400  9.394150  6.466840
195  2 -0.7436 18.340900  9.679290 12.493300
196  2 -0.7616  0.072256 15.475200 18.444200
197  2 -0.7931 17.803000 15.263100  6.581640
198  2 -0.7961  0.448647 15.290500 12.372900
199  2 -0.8089  6.256690  3.245170  0.162944
200  2 -0.7645  6.249790  3.039600  6.264140
201  2 -0.8243  6.209650  3.199280 12.446900
202  2 -0.7506  6.484200  9.115530 18.296300
203  2 -0.7688  5.973090  9.281780  6.711110
204  2 -0.8347  6.103190  9.307420 12.099100
205  2 -0.8102  6.018740 15.360300  0.121103
206  2 -0.7922  6.557400 15.398300  6.349750
207  2 -0.7349  6.110980 15.408200 12.228200
208  2 -0.7608 12.378100  2.784630  0.522314
209  2 -0.7613 12.393800  3.159450  6.624870
210  2 -0.9239 12.614800  2.871230 12.242000
211  2 -0.7819 12.321300  9.206900  0.033945
212  2 -0.7975 12.389300  9.180350  6.163870
213  2 -0.7427 12.409500  8.826750 12.464000
214  2 -0.7846 12.518600 15.306700 18.189300
215  2 -0.7781 12.294200 15.501400  6.297010
216  2 -0.7584 11.959800 14.805400 12.025800

