Generated by pymatgen.io.lammps.data.LammpsData

360  atoms

  2  atom types

0.000000 16.677463  xlo xhi
0.000000 21.699897  ylo yhi
0.000000 28.493178  zlo zhi

Masses

1  208.9804
2   78.9600

Atoms

1    1  0.7525 14.279700 13.223700 22.272700
2    1  0.8097  5.168140 19.926100 21.247100
3    1  0.7271  3.861560  5.720770 23.175100
4    1  0.7335  4.283130 11.508700 18.683400
5    1  0.6823  7.002290  9.531320 25.126800
6    1  0.8544  9.734030 16.946900 18.625700
7    1  0.7466  9.794920  2.568890 23.156700
8    1  0.7494  2.768280  2.461390 23.979000
9    1  0.8424  8.744050  6.162440 20.724900
10   1  0.8752  8.627720  9.056010 17.166300
11   1  0.6955  5.622810 15.600100 22.667000
12   1  0.6873 15.718300 17.502800 25.290600
13   1  0.7855  6.152710 21.228200 24.911600
14   1  0.8542  5.472560  3.482610 20.863700
15   1  0.8108 10.217500  3.320340 18.481500
16   1  0.8336 16.245100  9.327040 19.227700
17   1  0.7116 11.827800 15.371100 21.786000
18   1  0.8377  1.529080 20.321300 23.194800
19   1  0.8349  8.584520 18.548800 21.890500
20   1  0.7569 12.779100  1.130180 18.809300
21   1  0.8276 14.904200  7.744450 26.617300
22   1  0.8317 11.802700  8.315160 20.785100
23   1  0.8354 13.079600 18.443200 22.695300
24   1  0.8434  1.849970  1.022880 28.463700
25   1  0.6254  0.850471 13.632400 26.735500
26   1  0.8587  4.292460 19.151900 26.881800
27   1  0.7131  2.492470  9.861040 26.938100
28   1  0.9113 16.538600 10.693700 24.012400
29   1  0.5872  2.222740 16.587600 23.349400
30   1  0.9872  6.991230 15.918700 27.742900
31   1  0.7485 14.093700  0.524903 22.214800
32   1  0.7332  6.537360  6.429970 25.382300
33   1  0.7828  5.082500  9.951910 21.747900
34   1  0.8537  9.276830 12.535400  0.290622
35   1  0.7020  8.949450 14.013800 23.775500
36   1  0.8806 12.503100 20.947000 25.175800
37   1  0.7910  5.616150  2.808510 26.622500
38   1  0.7267  9.130460  3.424860 26.329100
39   1  0.7872  8.818230  7.091070  0.895328
40   1  0.6883 11.802600  5.545520 26.724400
41   1  0.7188 11.708100 14.608000 25.354700
42   1  0.6569 16.376300 16.538700  0.181263
43   1  0.8813 10.564000 16.902700 27.898900
44   1  0.6894  0.012237  3.750530 22.952500
45   1  0.8177 13.605200  2.255340 28.418000
46   1  0.9017 11.728900  9.943950 27.106700
47   1  0.7867 14.884400  1.520540  4.538830
48   1  0.6901  0.572253  4.470720 26.578300
49   1  0.7149 16.654600 16.576900  3.574060
50   1  0.7790  7.170250  0.563029  3.966750
51   1  0.6578  0.531648 11.375400  1.339320
52   1  0.6485  5.900190 11.751400 26.409600
53   1  0.5787  3.070900 13.934600 27.998300
54   1  0.6602  8.955920 13.226800  3.407720
55   1  0.6661  2.586490  4.036800  3.520830
56   1  0.7327  3.994670  3.282140  6.837980
57   1  0.6699  2.433450  7.231330  1.180110
58   1  0.7335  5.382190 12.290100  2.983110
59   1  0.7634  0.199137 12.791800  5.784670
60   1  0.8640 12.882300 18.965800  3.011700
61   1  0.8114  5.505960 19.126600  2.374870
62   1  0.8379  5.162650  4.486450  1.652450
63   1  0.7524 11.859200  5.837280  1.845500
64   1  0.8407 13.913500 13.605400  1.044600
65   1  0.8868  1.888800 20.616300  2.950180
66   1  0.8998 15.840900 20.782800  9.039130
67   1  0.8493 10.131400  0.219125  0.219218
68   1  0.7658 12.788100  7.372500  6.161820
69   1  0.8654  6.203110  8.515790  3.574790
70   1  0.6414  2.759760 13.925400  3.109400
71   1  0.7511  2.133290  0.168046  5.889890
72   1  0.6781 16.230700  5.835990  3.099610
73   1  0.8294  0.789613 16.591000 11.454200
74   1  0.8103  7.134980 19.733300 11.362000
75   1  0.8273  1.556950  9.483990  7.437840
76   1  0.6573  1.916580 10.736500 11.261400
77   1  0.8609  6.507900 16.319000 11.897900
78   1  0.8454 10.067800 17.629200  7.703610
79   1  0.8181  4.584460 19.083300  6.087910
80   1  0.7490  2.130520  7.075430  5.134160
81   1  0.7943  8.125920 11.074000  5.914820
82   1  0.6236  4.204910 12.204800 11.380000
83   1  0.8145  8.596830  2.260810 13.524000
84   1  0.7057 11.039100 21.585700  4.651280
85   1  0.6561  3.549340  5.458990 10.253900
86   1  0.8501  7.852480  4.924710  5.056310
87   1  0.6696 10.768600  8.780140  8.751700
88   1  0.7431 11.840200 12.045500  5.791270
89   1  0.7624 13.252300 15.227800  4.638520
90   1  0.7675 12.412700 20.350500 11.237100
91   1  0.7774  8.049430 21.620500  7.636850
92   1  0.7243 12.732800  3.925250  5.734830
93   1  0.8406 12.052500  9.863030  2.694210
94   1  0.7795 16.357700 13.504500  9.244220
95   1  0.7544  0.569988 16.606500  7.350640
96   1  0.8163 13.944100 12.213500 12.091000
97   1  0.8372 13.981700 16.868900  8.831130
98   1  0.8953  3.034590 20.184600 10.399800
99   1  0.8051  2.140430  5.614210 16.835500
100  1  0.7196 13.628300  6.326940 13.608400
101  1  0.7701  2.424070 13.225400 14.897400
102  1  0.7037  5.181460  3.455050 12.132100
103  1  0.9000  1.673690  0.776041 14.689300
104  1  0.8439 15.044800  3.165670  8.218110
105  1  0.7814  0.984873  5.295320 12.220400
106  1  0.7738  5.936340 11.070200 15.001500
107  1  0.8879  7.207210 18.711700 16.400800
108  1  0.8297 13.753300 15.272400 13.209000
109  1  0.7914  1.566090  2.235010  9.887920
110  1  0.8540  5.301350  8.833670  8.453920
111  1  0.7258  6.692600  9.830880 11.760500
112  1  0.8637  8.281030 14.253000  8.902390
113  1  0.7233 10.626900 16.721800 11.268600
114  1  0.8422 14.756600 19.201600 15.500300
115  1  0.8080 13.133800  2.079180 13.132100
116  1  0.7345  7.853050  6.364710  8.467100
117  1  0.7378  9.656200  3.053530  9.011280
118  1  0.8101 11.923100  9.488780 13.176700
119  1  0.7862  9.753170  5.784240 13.798100
120  1  0.6500 12.920000  6.247070 10.006900
121  1  0.6872 15.872700 15.985300 21.658000
122  1  0.8113  2.939670 17.206900 14.802600
123  1  0.9206  0.233509  9.145910 15.188800
124  1  0.8922 15.933000 13.763000 18.198900
125  1  0.7010  2.884150 12.668100 21.911800
126  1  0.8085  4.805020  1.488920 16.689000
127  1  0.7574 15.614000 20.205300 19.196400
128  1  0.8444  2.081420  6.426120 20.201500
129  1  0.7099  4.921170  7.402090 16.962100
130  1  0.8904  2.370780 16.041500 18.725100
131  1  0.8225  8.010090 12.927900 20.365500
132  1  0.7386 10.599900 20.049800 14.733600
133  1  0.7757  1.985540  1.109600 19.709800
134  1  0.6550  4.985560  6.656200 13.201200
135  1  0.7901 12.159800  7.293430 16.571300
136  1  0.8592 10.020600 12.795400 15.362400
137  1  0.8325 10.200900 15.932600 14.952300
138  1  0.7674 13.954100 11.514100 16.810200
139  1  0.7994  7.317110  0.098818 19.448200
140  1  0.7354  7.110350  4.792260 16.576000
141  1  0.8985 14.620000  5.710130 19.513900
142  1  0.7155 13.242300 11.255900 19.921800
143  1  0.8812 13.418000 16.677000 18.054800
144  1  0.9102 15.247400  3.530050 16.598300
145  2 -0.5306  5.037290 17.305800  0.116483
146  2 -0.5540 14.477900 17.888800  4.723540
147  2 -0.3008 13.828000  4.898710 24.351900
148  2 -0.4598  1.068450  7.895850 25.231400
149  2 -0.5789  3.806210  0.008903 23.360100
150  2 -0.5142  5.349680 14.935700 25.936300
151  2 -0.6898  1.745420  1.177060  3.617260
152  2 -0.6115  3.613020  5.328450 25.813800
153  2 -0.7708  3.463900 11.440500  0.912963
154  2 -0.6552  0.322607 13.285100 23.557200
155  2 -0.6490  8.915870 15.104300 26.390700
156  2 -0.5431 13.311900 21.425300  2.439710
157  2 -0.5498  4.055470  1.546540  9.373860
158  2 -0.6459  7.092080  4.909810 27.512100
159  2 -0.6508 12.457900  8.026260  0.328722
160  2 -0.6820  7.896740 10.465700  3.402450
161  2 -0.4929 12.575900 17.885600 26.246400
162  2 -0.4064 14.092200 10.915600  0.268234
163  2 -0.5111  7.931180  1.825530 27.940900
164  2 -0.7251  4.429620  5.834880  3.737510
165  2 -0.2757 13.471300  8.897480 24.545300
166  2 -0.5350 16.235900 11.256700 26.571200
167  2 -0.7102 11.090500  3.214720  0.181222
168  2 -0.6376 14.055300  3.930240  3.176160
169  2 -0.3321 16.359900 21.288400  0.765535
170  2 -0.4922  0.389248  1.559100 25.283000
171  2 -0.6021 14.660400 10.482800 22.028300
172  2 -0.6927 15.328200 14.911000 26.829600
173  2 -0.3297  5.462910 21.192300  0.429210
174  2 -0.1496  9.043590 18.687900 26.137000
175  2 -0.3767  4.225130  1.382440  1.820020
176  2 -0.6716  3.250530 12.806900 25.449800
177  2 -0.5729  4.347000  8.537090 24.803200
178  2 -0.5424  9.008640 11.731300 26.077600
179  2 -0.6159  4.798890 18.472700 23.329700
180  2 -0.4744 15.352900 20.699300 24.613800
181  2 -0.5634  8.816870  5.344180 24.045900
182  2 -0.6483 14.393000  5.440640 27.623900
183  2 -0.4003  7.951270  9.255730 22.407800
184  2 -0.5214 11.506800 12.738200 27.953500
185  2 -0.7489  1.886370 15.986700  1.393230
186  2 -0.4948 16.377400  2.848410  0.529124
187  2 -0.3051  7.362660 20.393400 27.135600
188  2 -0.2650  7.532670 17.872500 25.205100
189  2 -0.6882  2.626800  4.673180  0.195756
190  2 -0.5130  9.494070  7.974680 26.547600
191  2 -0.4011 11.791500  3.941780 21.295700
192  2 -0.4373  2.505030 19.097300  0.619254
193  2 -0.5077  2.227300 18.168600 20.580700
194  2 -0.5676  3.563590  0.404318 26.428400
195  2 -0.1363 14.110100  6.483390 23.356100
196  2 -0.4735  2.062740  9.888700 22.072100
197  2 -0.6642  2.011940 18.378000 25.310500
198  2 -0.3188  7.212250 15.250800 14.637100
199  2 -0.6875 15.403500 18.895600 21.738700
200  2 -0.7707  2.530050  3.648190 21.739700
201  2 -0.4700  2.508670  8.820950 18.678600
202  2 -0.5458  5.570790  9.087760 18.872200
203  2 -0.7040  5.962780 12.342500 22.690600
204  2 -0.5907  7.554430 18.929700 19.431200
205  2 -0.7131  5.655490  3.024250 24.091700
206  2 -0.5648  4.329150  7.579340 21.357900
207  2 -0.6155  8.186380  3.610740 21.049500
208  2 -0.5342  4.474890 13.994400 19.808700
209  2 -0.2730 10.700100 10.499800 22.362100
210  2 -0.5443 10.351800 17.318600 23.390400
211  2 -0.4147 12.577400 20.515700 27.824500
212  2 -0.4752 12.946700  1.921100 25.378000
213  2 -0.7701 13.810200  8.107720 19.064000
214  2 -0.5132  9.376970  8.506930 19.768100
215  2 -0.4900 10.139500  0.711138 25.793500
216  2 -0.4988 14.658700  2.768270 20.636000
217  2 -0.4625 16.216000 17.081100 13.729900
218  2 -0.5331 12.027000 15.400000  8.674030
219  2 -0.5438  4.188150  6.037690  7.232900
220  2 -0.6207  2.849610  8.588770  9.699630
221  2 -0.6540  1.366130 13.512700 12.137500
222  2 -0.4089  5.567030 19.658100  9.057410
223  2 -0.7061 14.985600 14.722200  6.936050
224  2 -0.3921  6.956530  0.806419 10.874300
225  2 -0.5891  7.034350  8.431780  6.162010
226  2 -0.7518  4.557800  9.817830 13.359300
227  2 -0.7116  5.526800  7.061080 10.291500
228  2 -0.5591 10.397300  0.929303 12.242200
229  2 -0.6056  9.455800 19.598800  9.606010
230  2 -0.3224  7.490990 18.565100  6.335960
231  2 -0.5081 13.217500  8.983320 10.833700
232  2 -0.5156 10.333400 12.558600  7.792610
233  2 -0.4229  9.337590 15.432200  6.679190
234  2 -0.6577 14.871800 14.854100 10.791500
235  2 -0.5783 13.126300 17.537200 11.706200
236  2 -0.6065 10.633700  4.486970 11.674200
237  2 -0.2392  0.065711  7.559320  8.094980
238  2 -0.3800 15.984500 10.660800 10.027800
239  2 -0.7009  0.280402  1.073880  7.789290
240  2 -0.5472  5.538220  0.359932  6.502000
241  2 -0.5480  1.935600 18.263600  4.463700
242  2  0.0295  4.887650 14.575800  7.380840
243  2 -0.5021 14.988900  5.469490  6.391870
244  2 -0.5031  5.166540 11.493000  8.982170
245  2 -0.3090  4.179420 10.404300  6.207880
246  2 -0.5811  9.528470  9.881010  0.757454
247  2 -0.4005 11.165800  0.659019  8.604230
248  2 -0.6270  1.164430  4.700310  5.663840
249  2 -0.5488  8.542570  9.937730  8.798460
250  2 -0.4699  6.409740 12.910400  5.335440
251  2 -0.6664 10.673800  9.274760  5.099870
252  2 -0.4170 10.968900 18.860100  5.230730
253  2 -0.5834  1.904170 19.090700  8.267930
254  2 -0.1271  5.037630 16.740000  7.628050
255  2 -0.6066  2.641340  2.751470 12.775100
256  2 -0.7678 10.864800  5.464280  7.337130
257  2 -0.4789  2.131090 15.179300  5.404630
258  2 -0.4307 13.583700 19.639400  7.749440
259  2 -0.4249 14.324300 20.912900 12.740900
260  2 -0.5082  6.769380  3.841070  7.989620
261  2 -0.3636 14.492100 11.220300  4.878790
262  2 -0.2900 13.656900 12.521000  9.225000
263  2 -0.4485 14.462900  1.740560 10.154100
264  2 -0.2809 13.994900  9.464320  7.680390
265  2 -0.7578 15.613100 13.974700  3.346980
266  2 -0.4840  2.031660 15.312100  9.349000
267  2 -0.6016  0.396392  8.562330  0.237141
268  2 -0.4859  3.747690  9.309760  3.641510
269  2 -0.6946  6.707520 13.511000  0.284055
270  2 -0.4558  9.871920 15.143600  1.285830
271  2 -0.4963 10.113700 20.268500  2.002990
272  2 -0.5092  6.140650  2.940960  4.148930
273  2 -0.5927 10.487900  5.295200  4.047770
274  2 -0.4622  6.255550  8.042660 28.274900
275  2 -0.2360 10.781000 16.518300  3.843210
276  2 -0.5869 13.370600 16.063000  1.474250
277  2 -0.3013  8.336450 18.118700  0.661726
278  2 -0.6594  4.410750 20.997700  3.871860
279  2 -0.5537  7.453070  5.670880  2.404530
280  2 -0.6490 11.742700 12.746300  2.786220
281  2 -0.4070  2.383460 12.572900  7.440400
282  2 -0.2463  6.032830 16.273900  3.929050
283  2 -0.1814  8.335300 18.741100  4.113340
284  2 -0.4443 16.272500 20.663800  5.116410
285  2 -0.4456 13.826800  7.915430  3.657910
286  2 -0.4136  1.450770 10.644500  4.087280
287  2 -0.6424  9.126610  1.770700  5.529190
288  2 -0.3259 16.534900  8.439400  4.598920
289  2 -0.4002 13.133300 12.313000 24.779900
290  2 -0.3184  4.222960 16.410000 17.020900
291  2 -0.4895  2.855370 10.403500 15.828600
292  2 -0.7057  0.877363 13.559600 20.166100
293  2 -0.2803  7.392290 15.202000 18.628700
294  2 -0.4860  8.287590 21.295800 22.795600
295  2 -0.6249  0.138310  0.309283 21.840900
296  2 -0.5289  3.508690  4.203980 18.721000
297  2 -0.5183  6.416040  6.037120 19.125800
298  2 -0.4941 11.242600 10.803000 18.137800
299  2 -0.2860  5.348560 17.068300 20.042900
300  2 -0.8370 13.950600 15.981100 23.533200
301  2 -0.6299  4.829620  0.812887 20.723400
302  2 -0.6050  6.558370  2.776840 18.202300
303  2 -0.2215 11.337600  7.084920 24.230400
304  2 -0.6682 11.794900 17.807800 20.449800
305  2 -0.5304 11.005000 14.635200 17.680500
306  2 -0.4089  1.688780 20.019500 17.705300
307  2 -0.5293 11.621100 20.745700 22.631600
308  2 -0.5306  0.091737  4.290410 18.906100
309  2 -0.5548 16.427600  7.002370 21.114400
310  2 -0.6817 16.594700 11.180700 17.284400
311  2 -0.6308 13.555500 19.261900 17.759600
312  2 -0.4784 12.364100  0.389977 15.565000
313  2 -0.5508  0.595944 15.015900 16.609400
314  2 -0.4618  5.647550 18.187800 13.867600
315  2 -0.5652 15.446400  1.100570 17.432300
316  2 -0.4312  4.603440 13.580700 16.046800
317  2 -0.4830  4.378800 15.048800 13.219600
318  2 -0.6812  8.432320 15.347200 21.764700
319  2 -0.4256  1.197140 19.965700 14.273700
320  2 -0.4386  7.688160 21.432400 16.688900
321  2 -0.4516  7.729620 11.934000 17.478600
322  2 -0.6582  7.025390  7.896780 15.174600
323  2 -0.4958  7.543560 13.444200 11.305200
324  2 -0.5723 12.669000 17.324700 14.891300
325  2 -0.7335  9.140430 17.494500 13.099000
326  2 -0.6916  5.070030  3.905340 14.866500
327  2 -0.6454  9.962460  5.717130 17.687300
328  2 -0.5408 14.082400 14.578500 16.178000
329  2 -0.8177 14.015600 14.014900 19.855900
330  2 -0.5593 15.998700 16.848300 18.977700
331  2 -0.7321  9.740130 18.164000 16.407300
332  2 -0.6289 13.014200  4.179930 17.910200
333  2 -0.5644 11.675200  4.418850 15.076900
334  2 -0.6392 13.827900  8.761350 15.325000
335  2 -0.3721  4.846940 19.738300 18.225000
336  2 -0.4814 10.640000  0.605132 20.203700
337  2 -0.4020  6.222960  0.750349 14.574000
338  2 -0.3568  4.046900 21.057900 12.519700
339  2 -0.4861 16.017700  5.512820 15.058200
340  2 -0.4961 15.471400 11.001100 13.518000
341  2 -0.4039  3.887340 17.719900 11.115600
342  2 -0.4722  9.260260  2.000360 15.820600
343  2 -0.5254  1.817800  2.579560 16.437400
344  2 -0.5736  0.801838  4.727440  9.387080
345  2 -0.6344  2.427200  6.882450 14.433100
346  2 -0.5509  7.865850 17.059500  9.694450
347  2 -0.5122 10.814000 12.885600 20.577500
348  2 -0.5256  7.315270  5.020420 11.519000
349  2 -0.4789  8.710300 10.700300 13.991500
350  2 -0.5407  9.635940  7.461410 11.739500
351  2 -0.6338 10.256700  8.260520 15.267100
352  2 -0.6258 10.630800 14.137200 13.124200
353  2 -0.5585 15.670300 18.218800 10.268400
354  2 -0.4890  0.777945 21.485200 11.200400
355  2 -0.6079 13.552000  1.628900  6.825930
356  2 -0.3069 16.006100  8.044170 12.344500
357  2 -0.5198 16.477000  7.599970 17.336600
358  2 -0.6321 12.316300 11.657200 14.770600
359  2 -0.4255 15.964800  2.730470 13.907200
360  2 -0.5566 14.683700  4.876320 11.550000

