Generated by pymatgen.io.lammps.data.LammpsData

320  atoms

  2  atom types

0.000000 24.637781  xlo xhi
0.000000 17.058433  ylo yhi
0.000000 27.370788  zlo zhi

Masses

1  208.9804
2   78.9600

Atoms

1    1  0.7514 21.901900 18.032100  0.501534
2    1  0.7174 -2.087200 18.422100 14.256800
3    1  0.7730 21.509400  9.997670  0.135236
4    1  0.7352 -1.743820  9.619420 14.297100
5    1  0.7836  9.251990 18.275200  0.899344
6    1  0.7548 10.548400  1.295160 14.365300
7    1  0.7099  9.273070  9.526030  0.704710
8    1  0.7413 10.475800  9.755080 14.202500
9    1  0.7568  4.080030  5.169980 10.353100
10   1  0.7316  3.063450  5.599380 24.061500
11   1  0.7983  4.063770 13.833500 10.449200
12   1  0.7607  3.511300 13.900100 23.987400
13   1  0.7814 16.099700  5.408540  9.917170
14   1  0.7600 15.809200  5.322430 23.715000
15   1  0.8088 16.684200 13.992800 10.108500
16   1  0.7527 15.402600 13.874400 23.550600
17   1  0.7681  4.377150  5.615030  5.919300
18   1  0.7663  3.121320  5.613360 19.838500
19   1  0.7126  4.639670 14.005200  6.372650
20   1  0.7231  3.509280 13.892600 19.733100
21   1  0.6689 16.527900  5.681430  5.439870
22   1  0.7546 15.522800  5.507600 19.760200
23   1  0.7225 16.822100 13.914300  5.837580
24   1  0.7205 15.203200 14.203700 19.915200
25   1  0.7981 -1.979070 18.259700 10.100600
26   1  0.7677 21.913300 18.237700 23.600300
27   1  0.8148 -1.916170  9.581310  9.648260
28   1  0.7371 21.697600  9.574410 23.295900
29   1  0.7894 10.219500  1.107830 10.227800
30   1  0.7698  9.676000 18.492300 24.068900
31   1  0.7767 10.598000  9.718470 10.226100
32   1  0.7755  9.403990  9.644560 24.166200
33   1  0.7672 21.745200  5.364490  0.456516
34   1  0.7314 -1.830680  5.377420 14.101300
35   1  0.7326 21.553900 14.017100  0.576056
36   1  0.6807 -2.054280 14.049800 14.171700
37   1  0.7477  9.139540  5.401140  0.722553
38   1  0.7445 10.547200  5.460190 14.324300
39   1  0.7444  9.576820 13.846800  0.755333
40   1  0.7652 10.619300 13.945900 14.334300
41   1  0.7648 -1.966700  5.375760 10.097300
42   1  0.7675 21.880600  5.593800 23.825400
43   1  0.7302 -1.846770 14.126200  9.810220
44   1  0.7675 21.728900 13.998900 23.567100
45   1  0.7457 10.304300  5.612490 10.189800
46   1  0.7651  9.672890  5.298940 23.672900
47   1  0.7642 10.283700 14.005000 10.225600
48   1  0.7634  9.336060 13.976100 23.764300
49   1  0.7154  4.333470  0.942078  6.222220
50   1  0.7264  3.167180 18.315800 19.598100
51   1  0.7588  4.406360  9.717950  6.354340
52   1  0.7598  3.238880  9.803390 19.824900
53   1  0.7360 16.732800  1.269270  5.825270
54   1  0.7586 15.552100 18.231000 19.868000
55   1  0.7339 16.984100  9.961950  6.074300
56   1  0.7728 15.159100  9.401550 19.565100
57   1  0.7549  4.271850  1.170960 10.528800
58   1  0.7632  3.317550 18.299800 24.175800
59   1  0.7435  4.203840  9.572560 10.345200
60   1  0.7779  3.333490  9.745220 24.082700
61   1  0.7884 16.251600  1.207390 10.154800
62   1  0.7570 15.560000 18.358700 23.751600
63   1  0.7788 16.459900  9.555940 10.503500
64   1  0.7967 15.754600  9.736130 23.564900
65   1  0.7673 -0.003705  7.788040 25.921100
66   1  0.8042  0.881380  7.578680 12.015000
67   1  0.7850  0.126791 16.157600 25.972200
68   1  0.7748  0.939587 16.360400 12.102200
69   1  0.7673 12.326100  7.594720 25.988400
70   1  0.8014 13.135000  7.553570 12.022800
71   1  0.8070 12.251200 16.227100 26.330900
72   1  0.8418 13.182000 15.947600 12.020400
73   1  0.7892  6.600580  7.528110 25.937800
74   1  0.8146  7.424990  7.582230 12.468900
75   1  0.8436  6.595390 16.233500 25.883600
76   1  0.8133  7.086050 16.012400 12.508300
77   1  0.8414 18.890900  7.772380 25.328700
78   1  0.8024 19.651400  7.379980 12.152300
79   1  0.8240 19.132900 16.196700 25.475000
80   1  0.8107 19.641100 16.033900 12.404500
81   1  0.7567  0.192682  3.607250 26.001200
82   1  0.8040  0.971961  3.443940 11.896500
83   1  0.8082 -0.126728 11.931100 25.684500
84   1  0.7996  0.644123 11.904900 12.129300
85   1  0.7440 12.380100  3.454910 26.151200
86   1  0.8508 13.195200  3.181940 12.088800
87   1  0.7996 12.358600 11.803300 25.912200
88   1  0.8246 13.278600 11.894700 12.065800
89   1  0.7821  6.466830  3.352790 25.998000
90   1  0.7530  7.312610  3.358520 12.911500
91   1  0.8368  6.500700 11.720600 26.109400
92   1  0.7706  7.412770 11.916900 12.285500
93   1  0.8258 19.154800  3.267680 25.607100
94   1  0.8270 19.522500  3.282960 12.235500
95   1  0.8359 18.798600 12.008600 25.107100
96   1  0.7703 19.501100 11.802000 12.336600
97   1  0.7870  1.263650  7.798540  7.890680
98   1  0.7794  0.706710  7.810730 21.879600
99   1  0.7688  1.434660 16.224200  8.082970
100  1  0.8285  0.482633 16.151700 22.016100
101  1  0.7582 13.482200  7.949690  7.817060
102  1  0.8285 12.797500  7.693500 22.046000
103  1  0.8016 13.484800 16.104700  7.930260
104  1  0.8287 12.607800 16.047000 22.091900
105  1  0.8315  7.084400  7.299720  8.458120
106  1  0.8091  6.518950  7.464010 21.499600
107  1  0.8107  7.106190 16.094200  8.501300
108  1  0.7535  6.517880 16.082600 21.537800
109  1  0.8151 19.276200  7.593920  7.787060
110  1  0.7975 18.830700  7.314830 21.288300
111  1  0.7966 19.295600 16.412700  8.246430
112  1  0.7883 18.441000 16.207500 21.755900
113  1  0.7532  1.247420  3.339280  7.702170
114  1  0.8021  0.599079  3.508970 21.989100
115  1  0.7982  1.412790 11.704100  8.119800
116  1  0.8533  0.579242 11.956700 21.960900
117  1  0.7090 13.394800  3.518000  7.079310
118  1  0.8231 12.689400  3.252190 22.043400
119  1  0.7986 13.775200 11.902900  7.862250
120  1  0.8237 12.458600 11.764800 22.058100
121  1  0.8230  7.108310  3.293310  8.791970
122  1  0.8067  6.084260  3.380410 21.587100
123  1  0.7987  7.089150 11.895700  8.457640
124  1  0.7656  6.229880 11.879300 21.726000
125  1  0.8171 19.337800  3.252800  8.016370
126  1  0.7760 18.832700  3.149690 21.559200
127  1  0.7876 19.585400 11.909300  8.310470
128  1  0.7697 18.335400 11.690900 21.164600
129  2 -0.8265  7.179560  5.451310 10.526700
130  2 -0.7555  6.365960  5.308350 23.585100
131  2 -0.8461  7.061820 14.020800 10.402100
132  2 -0.7903  6.360980 14.047200 23.964200
133  2 -0.7328 19.419200  5.382010 10.006500
134  2 -0.8097 18.847000  5.482970 23.514000
135  2 -0.7988 19.576200 14.020400 10.377000
136  2 -0.8249 18.506500 13.937100 23.478600
137  2 -0.8045  1.104910  5.468430  9.859900
138  2 -0.8670  0.230267  5.764320 23.958800
139  2 -0.8065  1.261220 13.943300 10.258300
140  2 -0.8058  0.227235 13.948800 23.870500
141  2 -0.7834 13.314700  5.539690 10.152400
142  2 -0.8207 12.519800  5.495100 23.799000
143  2 -0.7811 13.496600 13.990000 10.216400
144  2 -0.7945 12.281700 13.957500 24.087200
145  2 -0.1034 20.583500  2.975090  3.263890
146  2 -0.0721 -0.510369  3.476940 17.394500
147  2 -0.0744 20.163000 11.942900  3.681820
148  2 -0.0836 -0.342947 11.903800 17.410100
149  2 -0.0880  7.809260  3.211780  3.919890
150  2 -0.1187 11.803900  3.521440 17.122300
151  2 -0.1068  8.210950 11.756500  3.570320
152  2 -0.1013 11.824500 11.728800 17.230700
153  2 -0.1435 20.290000  7.926330  2.876290
154  2 -0.1146 -0.743942  7.651490 17.187300
155  2 -0.0875 20.315400 16.191100  3.571090
156  2 -0.0603 -0.278393 16.091300 17.558300
157  2 -0.0925  7.822080  7.514370  3.803170
158  2 -0.1091 11.866500  7.586520 17.159100
159  2 -0.1171  8.056490 15.865900  3.666420
160  2 -0.1068 11.680700 16.297100 17.216900
161  2 -0.8329  7.129400  0.996399 10.727500
162  2 -0.7431  6.472530 18.272700 23.731200
163  2 -0.7626  7.422850  9.538660 10.278600
164  2 -0.7626  6.442690  9.759220 23.953400
165  2 -0.7689 19.661400 18.261500 10.343100
166  2 -0.8449 18.895700  1.148460 23.755400
167  2 -0.7517 19.647700  9.477980  9.946420
168  2 -0.8236 18.791800  9.734910 23.172100
169  2 -0.8155  1.237800 18.423100  9.889730
170  2 -0.8109  0.440208  1.149060 23.937200
171  2 -0.8201  0.995116  9.625410 10.002600
172  2 -0.8370  0.572308  9.958030 24.012800
173  2 -0.7514 13.408700 17.954500  9.868080
174  2 -0.8067 12.625000 18.174400 24.078900
175  2 -0.8168 13.492200  9.733550  9.989570
176  2 -0.8305 12.534500  9.901990 23.985600
177  2 -0.1192  5.625110  3.324470  3.415230
178  2 -0.0795  1.617460  3.486380 16.717600
179  2 -0.0716  6.075330 11.891100  2.983320
180  2 -0.0795  1.809560 11.825900 16.692600
181  2 -0.0923 18.426900  2.911810  2.607090
182  2 -0.0702 13.988800  3.376670 16.408100
183  2 -0.1323 18.093400 11.843800  3.121420
184  2 -0.0958 13.990300 11.679700 16.668600
185  2 -0.1017  5.649170  7.658570  3.217150
186  2 -0.0868  1.491280  7.693550 16.675500
187  2 -0.0802  6.003230 15.757000  3.036860
188  2 -0.1107  1.813900 16.316600 16.894800
189  2 -0.0526 18.110700  7.904830  2.219290
190  2 -0.0932 13.936300  7.395470 16.663300
191  2 -0.0894 18.375000 16.138400  2.845360
192  2 -0.0942 13.959700 16.222200 16.656000
193  2 -0.3834  1.732910  5.743460  5.338150
194  2 -0.4161  0.392567  5.383930 19.873500
195  2 -0.3840  1.485650 13.983500  6.022590
196  2 -0.4471  0.696015 14.077500 20.067800
197  2 -0.4251 13.705200  5.919240  5.071830
198  2 -0.4094 12.737000  5.488270 19.958100
199  2 -0.4253 13.883200 14.041400  5.717640
200  2 -0.4471 12.438000 14.046400 20.017700
201  2 -0.4112  7.101760  5.318320  6.367640
202  2 -0.4445  5.839470  5.657250 19.410200
203  2 -0.4298  7.391850 13.919600  6.419690
204  2 -0.4544  6.413800 13.734900 19.544300
205  2 -0.4655 19.260100  5.553090  5.788770
206  2 -0.4351 18.318800  5.590220 19.264000
207  2 -0.4234 19.629800 14.030400  6.187200
208  2 -0.4213 18.071500 14.306200 19.429700
209  2 -0.8589 -2.102920  7.592150 12.031900
210  2 -0.9030 21.666500  7.604740 25.806100
211  2 -0.8883 -1.984170 16.323000 11.874600
212  2 -0.9148 21.852200 15.989500 25.577000
213  2 -0.9179 10.180300  7.654900 12.233300
214  2 -0.9161  9.432570  7.370650 25.890200
215  2 -0.8750 10.353200 15.900500 12.224100
216  2 -0.8475  9.449680 16.276500 26.106600
217  2 -0.8979 -2.108630  3.272310 12.132800
218  2 -0.8856 22.004700  3.358670 25.781500
219  2 -0.8463 -1.973050 11.700500 11.985600
220  2 -0.9007 21.610600 11.904800 25.420800
221  2 -0.8890 10.465600  3.104430 12.273300
222  2 -0.9073  9.448040  3.229600 26.161500
223  2 -0.9162 10.404600 11.859400 12.126000
224  2 -0.8916  9.312140 11.880400 26.030500
225  2 -0.4406  0.011672 18.193100  0.635333
226  2 -0.4086  0.918969 18.409600 14.171600
227  2 -0.4393 -0.453839  9.829080  0.550958
228  2 -0.4207  1.141380  9.723080 13.986500
229  2 -0.4863 11.878400  1.403370  0.992825
230  2 -0.4758 13.319800  1.132300 13.855500
231  2 -0.3887 12.130300  9.485410  0.979784
232  2 -0.4784 13.100600  9.538640 14.126600
233  2 -0.4261  6.467810 17.964000  0.640744
234  2 -0.3950  7.791880  1.238120 15.043000
235  2 -0.4770  6.511340  9.631050  0.521147
236  2 -0.4053  7.305170  9.895540 14.336600
237  2 -0.5024 19.295500  1.130520  0.021198
238  2 -0.4749 19.728300 18.420700 14.203100
239  2 -0.4238 18.738400  9.985020 -0.192515
240  2 -0.4179 20.050900  9.426320 14.437200
241  2 -0.8906  4.216730  7.518750  8.144750
242  2 -0.8905  3.545160  7.648260 21.708000
243  2 -0.9183  4.223910 15.974300  8.374510
244  2 -0.8394  3.427860 16.043500 21.875200
245  2 -0.8641 16.358600  7.807490  8.187210
246  2 -0.8876 15.716700  7.594560 21.685600
247  2 -0.8671 16.574200 16.115300  7.968570
248  2 -0.9373 15.436800 16.276800 21.933900
249  2 -0.8578  4.403510  3.271730  8.311960
250  2 -0.8976  3.311650  3.501540 21.831900
251  2 -0.9231  4.195560 11.747300  8.310940
252  2 -0.9186  3.336880 11.777400 21.852800
253  2 -0.8751 16.515600  3.272730  7.999360
254  2 -0.9281 15.557900  3.333450 21.732500
255  2 -0.8597 16.512100 11.827500  8.280440
256  2 -0.9018 15.426400 11.717500 21.636500
257  2 -0.4687  6.434400  5.429080  0.573701
258  2 -0.5003  7.860480  5.448920 14.597300
259  2 -0.4124  6.617400 13.956800  0.457124
260  2 -0.4319  7.702030 14.050000 14.557000
261  2 -0.3727 18.851500  5.526530  0.146284
262  2 -0.4460 20.003800  5.494390 14.280600
263  2 -0.3937 18.875400 14.011900  0.370110
264  2 -0.5031 19.943700 13.733100 14.323300
265  2 -0.3908 -0.166505  5.274190  1.004720
266  2 -0.4675  1.036220  5.343020 13.804500
267  2 -0.4567 -0.392842 13.869900  0.638151
268  2 -0.3837  0.944950 14.150700 14.293700
269  2 -0.4175 12.122500  5.737570  0.874416
270  2 -0.4202 13.394400  5.369140 13.909600
271  2 -0.4456 12.447800 13.794000  0.606377
272  2 -0.4412 13.309500 13.927200 14.124300
273  2 -0.4412 -2.152360  3.494550  8.023460
274  2 -0.4751 21.959400  3.473630 21.869000
275  2 -0.4419 -1.880320 11.831400  7.894750
276  2 -0.4264 21.750900 11.777000 21.491600
277  2 -0.4882 10.100300  3.254280  8.380230
278  2 -0.4626  9.894200  3.155370 21.820300
279  2 -0.4227 10.213500 11.837000  8.143290
280  2 -0.4759  9.329900 11.430800 22.052000
281  2 -0.4647 -1.924830  7.495830  8.027670
282  2 -0.4613 22.245500  7.496190 21.546000
283  2 -0.4098 -2.065440 16.494000  7.887570
284  2 -0.4231 21.864400 16.259100 21.535900
285  2 -0.4653 10.093000  7.744090  8.150210
286  2 -0.4749  9.907040  7.515900 22.073600
287  2 -0.4724 10.243200 16.182400  8.244930
288  2 -0.4757  9.757780 16.254600 21.951700
289  2 -0.3946  7.301220  1.166950  6.560120
290  2 -0.4407  6.050940 18.594000 19.510100
291  2 -0.3905  7.100350  9.697530  6.305270
292  2 -0.4075  6.054380  9.746940 19.481900
293  2 -0.4527 19.541900  1.211470  6.170980
294  2 -0.5159 18.288600 18.190900 19.744100
295  2 -0.4840 19.623700  9.932180  6.273810
296  2 -0.4239 17.935700  9.414040 19.162300
297  2 -0.4457  1.486000 18.096300  5.842640
298  2 -0.4020  0.320259  1.256780 19.971700
299  2 -0.4809  1.619210  9.867680  6.059790
300  2 -0.4692  0.459607  9.985710 20.009300
301  2 -0.4654 13.975500  1.221370  5.465110
302  2 -0.3733 12.523800  1.191020 19.978900
303  2 -0.4612 14.156900 10.105700  5.783980
304  2 -0.4326 12.433800  9.683660 20.089300
305  2 -0.4544  3.845910  3.359060 12.538900
306  2 -0.4431  3.461090  3.277170 26.248300
307  2 -0.4314  4.089980 11.791900 12.353100
308  2 -0.4058  3.261400 11.801400 26.162300
309  2 -0.4729 16.218200  3.390160 11.910400
310  2 -0.3918 16.051100  3.605200 26.097300
311  2 -0.5087 16.281300 11.998100 12.006300
312  2 -0.4520 15.628200 11.813300 25.536500
313  2 -0.4197  3.950280  7.456560 12.358800
314  2 -0.4701  3.300680  7.550630 25.998800
315  2 -0.4595  4.149330 16.149800 12.531900
316  2 -0.4572  3.513640 16.234300 25.937400
317  2 -0.4141 16.405600  7.239320 12.336700
318  2 -0.4791 16.050300  7.564810 25.415200
319  2 -0.4816 16.573700 16.077800 11.947400
320  2 -0.3865 15.454800 16.170200 25.740300

