Generated by pymatgen.io.lammps.data.LammpsData

216  atoms

  2  atom types

0.000000 18.096178  xlo xhi
0.000000 18.140645  ylo yhi
0.000000 18.233787  zlo zhi

Masses

1  208.9804
2   78.9600

Atoms

1    1  0.6815  0.229151 18.106600  0.524928
2    1  0.7634  0.088752 17.653700  6.153070
3    1  0.6599  0.678776 16.810500 12.236700
4    1  0.7888  0.274604  6.302620 17.566400
5    1  0.7748 18.061800  5.735000  5.511830
6    1  0.7796 18.120900  5.355150 11.461200
7    1  0.8322 18.121300 12.114200  0.147593
8    1  0.8145  0.085254 11.325000  5.741350
9    1  0.7908 17.943800 11.213400 11.726000
10   1  0.8621  6.405160 18.194300 18.276200
11   1  0.6952  5.438620 18.084800  6.430780
12   1  0.8841  5.912120 17.995300 12.188700
13   1  0.7248  6.279650  6.077700 17.879900
14   1  0.6682  6.012930  5.963220  5.735690
15   1  0.7376  5.722020  5.331810 11.676100
16   1  0.7225  5.810180 11.830800  0.073086
17   1  0.7670  6.533300 12.005500  6.349220
18   1  0.7502  5.441840 12.276000 12.034300
19   1  0.7759 12.150300 18.103900 17.765100
20   1  0.7756 11.908800 17.411100  5.272580
21   1  0.6612 12.623800  0.517177 11.898900
22   1  0.7661 12.038600  6.387660 17.531200
23   1  0.7440 12.810400  5.130270  5.047100
24   1  0.8544 12.387900  5.478620 11.858600
25   1  0.8057 12.195300 11.863100 17.952600
26   1  0.7369 12.426600 11.446000  5.273540
27   1  0.7054 12.254100 11.645900 11.889400
28   1  0.7520  0.196158  2.414690  2.832560
29   1  0.8001 18.116400  2.902510  8.544270
30   1  0.7353  0.210777  2.636860 14.848500
31   1  0.7791  0.234716  8.683700  2.603040
32   1  0.7853  0.396806  8.170320  8.595220
33   1  0.8240  0.714766  9.076490 14.854500
34   1  0.7520  0.686089 14.938900  3.296340
35   1  0.8292 18.167300 14.238300  9.254830
36   1  0.7236 17.991500 15.683800 16.087300
37   1  0.7885  5.945750  2.332290  3.197510
38   1  0.6479  6.728270  2.095020  8.752840
39   1  0.7542  6.568970  2.868960 15.073000
40   1  0.8429  6.020760  8.354690  2.774200
41   1  0.7822  6.043590  8.899550  8.299410
42   1  0.6664  6.483700  8.489850 15.839000
43   1  0.8160  6.366790 14.699000  2.912350
44   1  0.8011  5.582240 14.964800  9.656680
45   1  0.7299  6.788410 15.323900 15.005800
46   1  0.7128 12.188300  2.507610  2.263140
47   1  0.7773 12.294400  2.685140  8.450620
48   1  0.8172 11.769700  3.132370 14.455500
49   1  0.7579 13.189600  8.895890  2.640970
50   1  0.8380 11.844600  8.454580  8.663010
51   1  0.6005 13.026100  9.118430 14.871200
52   1  0.8354 12.097100 14.578000  2.599660
53   1  0.8259 12.253900 14.432300  8.947940
54   1  0.7066 13.100200 15.272100 14.817300
55   1  0.7266  3.216700 17.398700  3.404030
56   1  0.8209  3.223540 17.634600  9.078880
57   1  0.8920  3.269370 17.483300 15.197400
58   1  0.8455  3.520110  5.370480  1.852650
59   1  0.5153  3.804290  4.918240  8.772440
60   1  0.7304  3.253250  5.645860 14.700700
61   1  0.7901  2.500770 11.513600  2.858130
62   1  0.7655  3.240010 11.700400  8.618720
63   1  0.6607  3.254130 12.411700 15.776900
64   1  0.7039  8.732930 18.063400  3.122830
65   1  0.9021  9.172150 17.439500  8.903830
66   1  0.7876  9.328540  0.081364 14.513100
67   1  0.8387  9.160670  6.155920  2.200620
68   1  0.7108  9.308510  4.739510  8.354930
69   1  0.7381  9.445490  6.658230 14.334000
70   1  0.8847  9.434810 12.144300  3.019560
71   1  0.7578  9.221410 11.741800  8.572060
72   1  0.7372  8.899740 12.209200 15.263000
73   1  0.7019 15.257100 18.078300  2.896640
74   1  0.7685 14.957400 17.586500  8.561660
75   1  0.7097 15.668100 17.992500 14.824500
76   1  0.6125 15.744000  5.532510  2.043160
77   1  0.8075 14.584400  5.215520  8.557170
78   1  0.7754 15.717100  6.377510 14.120600
79   1  0.8808 15.513300 11.351300  3.159890
80   1  0.8398 15.131900 11.466200  8.641260
81   1  0.6781 14.621100 11.619200 15.145800
82   1  0.7766  3.081390  2.889360 17.596300
83   1  0.6885  3.236780  2.654970  5.717840
84   1  0.7346  2.904960  3.162500 12.102600
85   1  0.7619  3.770490  9.205260 18.076100
86   1  0.6941  3.622530  8.838120  5.833280
87   1  0.7957  3.232440  9.477840 11.926500
88   1  0.7890  3.129810 14.656700  0.432054
89   1  0.8393  3.312320 14.517800  6.071860
90   1  0.6603  1.086190 14.039700 13.807000
91   1  0.8239  9.207660  2.944520 17.837500
92   1  0.6941  9.395590  2.388910  5.765980
93   1  0.8098  9.105520  2.587370 12.078200
94   1  0.7818  9.190720  9.014570 -0.016090
95   1  0.7874  9.035700  8.769750  5.810460
96   1  0.7965  8.881080  8.757340 11.428900
97   1  0.7670  9.306440 15.053500 17.972200
98   1  0.9091  8.847530 14.580100  6.043230
99   1  0.7798  9.237260 14.569800 12.259200
100  1  0.6967 15.398900  3.162380 17.718900
101  1  0.8065 15.511700  2.890530  5.856460
102  1  0.7506 15.474400  2.643590 11.725100
103  1  0.7109 15.669200  9.074770 17.588500
104  1  0.7246 14.952100  8.888780  6.026550
105  1  0.8570 15.515100  8.491000 11.837400
106  1  0.7205 15.020800 14.586600 17.856900
107  1  0.7556 15.478500 14.711100  6.107470
108  1  0.7579 14.621300 15.100300 11.720500
109  2 -0.6434  3.683860 17.706100  0.344632
110  2 -0.9003  3.003530 17.011200  6.365400
111  2 -0.6598  3.485680 17.485000 12.154900
112  2 -0.8582  3.187400  5.536840 17.519300
113  2 -0.6784  3.446720  5.722620  5.015330
114  2 -0.7542  3.036170  6.104820 11.981000
115  2 -0.9373  3.141250 11.715200  0.286187
116  2 -0.7712  3.831370 11.918500  5.647130
117  2 -0.7446  2.575440 12.211400 11.470400
118  2 -0.7444  9.210270 18.081100 17.592200
119  2 -0.7433  8.677410 17.627100  5.946650
120  2 -0.7468  9.338680 17.612300 12.002600
121  2 -0.8178  8.932360  5.974360 17.641300
122  2 -0.6206  9.415930  5.824270  5.086330
123  2 -0.5992  9.248870  5.366450 11.458700
124  2 -0.7231  9.077590 11.982500  0.414075
125  2 -0.8553  9.557760 12.159200  6.014320
126  2 -0.6434  8.780530 11.490800 11.833000
127  2 -0.7530 15.569600 18.175400 17.801700
128  2 -0.7533 15.055800 17.987000  5.885430
129  2 -0.7895 15.605200 17.719300 11.509800
130  2 -0.7467 15.091600  6.241150 17.090700
131  2 -0.8415 15.308900  5.409390  5.801010
132  2 -0.8366 15.614100  5.561560 11.463600
133  2 -0.8014 15.274900 11.878600 17.892700
134  2 -0.8350 15.453300 11.883900  5.673460
135  2 -0.7195 15.124500 10.853000 11.661500
136  2 -0.7296  3.214350  2.672420  3.080300
137  2 -0.7633  3.305340  2.327870  9.447690
138  2 -0.7455  3.300390  2.110070 14.799100
139  2 -0.7568  3.064940  8.448030  2.531270
140  2 -0.8029  3.523600  8.937510  8.902950
141  2 -0.7411  3.504850  8.747050 14.973900
142  2 -0.8148  3.506280 14.564600  3.241740
143  2 -0.7359  2.550380 14.219100  9.105400
144  2 -0.8942  2.698800 15.101800 15.618200
145  2 -0.7141  8.942350  3.001830  2.681990
146  2 -0.7922  9.810280  1.988540  9.044830
147  2 -0.8415  9.306690  2.965550 15.039100
148  2 -0.6642  9.152940  9.009100  2.690170
149  2 -0.7580  9.102600  8.696460  8.479230
150  2 -0.7273  9.603870  9.442050 15.055700
151  2 -0.7837  9.451120 14.894900  3.049750
152  2 -0.7090  9.105470 14.968500  8.844340
153  2 -0.7744  9.475120 15.252100 14.982200
154  2 -0.8270 15.063900  2.660670  3.171900
155  2 -0.8083 15.043800  2.137300  8.895780
156  2 -0.7196 15.325400  3.241610 14.583500
157  2 -0.9153 15.766100  8.822210  3.094440
158  2 -0.6424 14.663700  8.153200  9.024240
159  2 -0.8192 16.136000  9.102980 14.352700
160  2 -0.6302 14.901300 14.068200  2.920230
161  2 -0.8092 14.947500 13.878400  8.894120
162  2 -0.8558 15.689500 15.328800 14.791400
163  2 -0.8892  0.160717 17.886100  3.373330
164  2 -0.6311  0.244981  0.224539  8.873670
165  2 -0.8168  0.354598 -0.015602 15.415400
166  2 -0.7036  0.664498  5.358350  2.573290
167  2 -0.7375 17.354700  5.826380  8.599060
168  2 -0.7693  0.295598  6.440750 15.035100
169  2 -0.8640 17.969300 11.774600  2.952400
170  2 -0.7233  0.057326 11.886400  8.659290
171  2 -0.7106 17.905300 12.195300 15.445000
172  2 -0.8156  6.112020 17.702400  2.729260
173  2 -0.8136  6.040660 17.636800  9.415930
174  2 -0.7361  5.993100 18.226700 15.472700
175  2 -0.7417  6.269200  5.684270  2.684480
176  2 -0.6856  6.852390  6.423700  8.882240
177  2 -0.7543  6.658560  6.087220 14.435100
178  2 -0.6048  6.557750 11.810000  3.281430
179  2 -0.7420  6.439830 12.102400  9.579640
180  2 -0.7995  5.948320 12.214000 15.088200
181  2 -0.7794 12.011200 17.471900  2.108700
182  2 -0.6475 12.092100 17.478400  8.367520
183  2 -0.7748 12.193100  0.120789 14.818500
184  2 -0.6898 12.213900  5.954650  2.444660
185  2 -0.7580 11.893900  5.608200  8.920200
186  2 -0.7884 12.351100  6.007200 14.475900
187  2 -0.8119 12.149400 11.802800  2.641730
188  2 -0.7755 12.184000 11.592600  8.630700
189  2 -0.7629 11.854300 12.043900 14.896800
190  2 -0.7765  0.411918  2.898440 17.733900
191  2 -0.7886  0.358218  2.429490  5.847360
192  2 -0.7532  0.149674  2.649250 11.478000
193  2 -0.7874  0.437939  8.952700 17.769200
194  2 -0.8199  0.144095  8.482420  5.964670
195  2 -0.7271  0.609780  8.382570 11.362400
196  2 -0.8193  0.184468 14.707800  0.714275
197  2 -0.7398  0.091966 14.067700  6.214160
198  2 -0.7119 17.008900 13.748200 12.130400
199  2 -0.7519  6.402320  2.907940 17.865600
200  2 -0.9190  6.191620  2.625440  5.958360
201  2 -0.8231  6.020130  2.417670 11.840100
202  2 -0.9697  6.408340  8.811300  0.233480
203  2 -0.8577  6.196810  9.278320  5.554900
204  2 -0.5330  6.044750  8.702570 11.345100
205  2 -0.7167  6.011920 14.969600 18.221700
206  2 -0.7597  6.361360 14.788600  6.226860
207  2 -0.7486  5.862020 15.159300 12.201600
208  2 -0.7266 12.289400  3.093080 17.969000
209  2 -0.8014 12.061100  2.134120  5.786990
210  2 -0.8621 11.449500  3.110340 11.839700
211  2 -0.8214 12.512600  9.155430 18.115200
212  2 -0.7361 12.304500  8.344080  5.512620
213  2 -0.6682 12.547600  8.281090 11.399600
214  2 -0.7672 12.013500 14.726800 17.890600
215  2 -0.6689 11.899400 14.765700  5.892630
216  2 -0.7801 12.038300 14.720000 11.749400

