Generated by pymatgen.io.lammps.data.LammpsData

216  atoms

  2  atom types

0.000000 18.096178  xlo xhi
0.000000 18.140645  ylo yhi
0.000000 18.233787  zlo zhi

Masses

1  208.9804
2   78.9600

Atoms

1    1  0.8527 18.335200 18.370700  0.371857
2    1  0.8037  0.593669  0.279957  6.269010
3    1  0.7536 18.027300 18.424500 12.612900
4    1  0.7707  0.259681  6.183180  0.390808
5    1  0.8075 18.769200  5.909940  6.382680
6    1  0.7560 18.496300  6.084720 12.232900
7    1  0.7309 18.383900 12.410700 18.658100
8    1  0.8274  0.338085 12.277400  6.500740
9    1  0.7554  0.030668 12.500600 12.314500
10   1  0.7211  6.269600 18.678000 18.513300
11   1  0.8122  6.369400 -0.112850  6.446330
12   1  0.8271  6.103960  0.469544 12.471000
13   1  0.7881  6.596070  6.491940 18.565300
14   1  0.8227  6.450040  6.315280  6.580540
15   1  0.8435  6.298500  6.208680 12.698300
16   1  0.8246  6.323030 12.131100 18.757000
17   1  0.8031  6.377200 12.105100  6.154370
18   1  0.6631  6.180590 12.575600 12.395600
19   1  0.7663 12.067200 18.782000  0.384897
20   1  0.7116 12.316500 18.160500  6.184460
21   1  0.7995 11.973700  0.204609 12.329500
22   1  0.8544 12.385500  6.274790  0.367430
23   1  0.7545 12.564900  6.339280  6.152340
24   1  0.7873 12.307500  5.899540 12.581200
25   1  0.7995 12.280000 12.297400 18.974200
26   1  0.8564 12.325700 12.008200  6.751520
27   1  0.8041 12.221900 12.415000 12.411100
28   1  0.7668  0.620509  3.283770  3.386680
29   1  0.7844  0.351997  3.330330  9.656270
30   1  0.8489 18.508300  3.501840 15.425500
31   1  0.7568 18.340300  9.055690  3.157260
32   1  0.7931  0.516782  9.523800  9.402320
33   1  0.7609  0.193457  9.369040 15.456800
34   1  0.7908  0.433608 15.413900  2.724620
35   1  0.8114 18.501800 15.395000  9.394130
36   1  0.7800  0.282350 15.387400 14.985300
37   1  0.8336  6.347840  3.063510  3.703700
38   1  0.7594  6.377150  3.273280  9.216720
39   1  0.7885  6.182830  3.431210 15.546400
40   1  0.7527  6.254980  9.000240  3.538650
41   1  0.7869  6.428660  9.380310  9.771630
42   1  0.8182  6.410110  9.260640 15.502800
43   1  0.8423  6.363690 15.270300  3.080060
44   1  0.7060  6.630730 15.252600  8.869620
45   1  0.7849  5.781130 15.575700 15.178300
46   1  0.7409 12.398400  3.145540  3.037610
47   1  0.8551 12.380000  3.117390  9.353430
48   1  0.7630 11.932000  3.406420 15.643200
49   1  0.7792 12.172500  9.003720  3.729780
50   1  0.8246 12.401400  8.893270  9.254270
51   1  0.7830 12.516000  8.968830 15.467100
52   1  0.7687 12.316600 15.234300  3.481660
53   1  0.8128 12.268500 14.842800  9.549250
54   1  0.8167 12.199300 15.217900 15.666800
55   1  0.7533  3.236820  0.310141  3.569590
56   1  0.7933  3.423850 18.629800  9.575200
57   1  0.8274  3.387580 18.757800 15.349900
58   1  0.8008  3.563090  6.447980  3.379340
59   1  0.7585  3.837340  6.247940  9.481410
60   1  0.8578  3.645070  6.605160 15.609000
61   1  0.8415  3.163870 12.311900  3.345400
62   1  0.7775  3.305870 12.048800  9.477350
63   1  0.7520  3.471760 12.448000 15.814900
64   1  0.7363  9.441040 18.527800  3.209520
65   1  0.8006  9.172230  0.224080  8.816300
66   1  0.8113  9.218430  0.179022 15.160100
67   1  0.7864  9.500850  6.415780  3.366640
68   1  0.8002  9.642240  5.964840  9.647710
69   1  0.7738  9.147540  6.202160 15.734700
70   1  0.8222  9.053650 12.111300  3.397970
71   1  0.8036  9.209440 12.215100  9.427330
72   1  0.8138  9.294710 12.462000 15.430700
73   1  0.7988 15.445900  0.040238  3.238870
74   1  0.7564 15.538400  0.113634  9.196930
75   1  0.7436 15.542300 18.701700 15.474700
76   1  0.7441 15.474800  5.807670  3.614360
77   1  0.8064 15.851100  6.119350  9.640890
78   1  0.8429 15.825300  6.173330 15.510500
79   1  0.8012 15.751700 12.053100  3.522070
80   1  0.7858 15.358300 12.079700  9.406250
81   1  0.6861 15.430700 12.658400 15.532900
82   1  0.7805  3.150490  3.046480  0.431147
83   1  0.7789  3.293700  3.034930  6.438020
84   1  0.8192  3.167640  3.353680 12.254400
85   1  0.7436  3.293810  9.099450  0.197556
86   1  0.7801  3.459160  9.050060  6.825730
87   1  0.8716  3.510710  9.020950 12.512600
88   1  0.8037  2.901520 15.220400  0.333834
89   1  0.7756  3.444270 14.974000  6.757470
90   1  0.7954  2.927220 15.339900 12.589700
91   1  0.7114  9.301960  3.216830  0.310275
92   1  0.8614  9.601530  3.231770  6.315630
93   1  0.7578  9.295010  3.078000 12.007100
94   1  0.7954  9.270670  9.318030  0.289703
95   1  0.7863  9.356040  9.175570  6.304510
96   1  0.8112  9.249250  9.005780 12.681900
97   1  0.7769  9.314910 15.446200  0.200793
98   1  0.7934  9.407320 15.353400  6.457690
99   1  0.7537  8.942530 15.118000 12.080900
100  1  0.7915 15.324500  3.303010  0.328234
101  1  0.8264 15.466800  3.067370  6.394390
102  1  0.7989 15.369300  2.926700 12.700400
103  1  0.7888 15.364000  9.293230  0.533776
104  1  0.7382 15.506200  9.207690  6.565150
105  1  0.7652 15.272100  9.354140 12.226900
106  1  0.8332 15.265500 15.637600 18.588000
107  1  0.7470 15.403200 15.062100  6.215310
108  1  0.7872 15.195800 15.643600 12.208800
109  2 -0.7414  3.088100  0.031289 18.445900
110  2 -0.7942  3.523030 18.142600  6.549940
111  2 -0.7837  3.171050  0.598593 12.462500
112  2 -0.7593  3.378550  6.237880 18.528400
113  2 -0.7960  3.555350  5.973150  6.526870
114  2 -0.8025  3.560520  6.205280 12.750500
115  2 -0.8282  3.066960 12.352100  0.368245
116  2 -0.7769  3.267660 12.139700  6.526060
117  2 -0.7514  3.340810 12.338700 12.470800
118  2 -0.8444  9.353660 18.466900 18.434400
119  2 -0.8476  9.459950  0.135893  6.159670
120  2 -0.7600  9.013650  0.230389 12.167000
121  2 -0.8413  9.537070  6.337040  0.365199
122  2 -0.7556  9.278250  6.137930  6.425790
123  2 -0.8044  9.222140  6.044800 12.773100
124  2 -0.7502  9.173100 12.167300 18.540200
125  2 -0.7685  9.391000 12.013400  6.355900
126  2 -0.8079  9.312180 12.422100 12.410500
127  2 -0.7817 15.162600 18.490700 18.537600
128  2 -0.7672 15.800600 18.402200  6.249120
129  2 -0.8520 15.173700  0.197392 12.490400
130  2 -0.7656 15.457900  6.236810  0.513020
131  2 -0.7577 15.651000  6.093840  6.768150
132  2 -0.7397 15.363300  5.977100 12.551400
133  2 -0.7504 15.238000 12.359100  0.682976
134  2 -0.8218 15.519600 12.072800  6.466970
135  2 -0.8115 15.297000 12.423300 12.179000
136  2 -0.8137  3.429510  3.378710  3.527760
137  2 -0.8501  3.361060  3.409240  9.438630
138  2 -0.7597  3.051380  3.418480 15.479600
139  2 -0.7635  3.048890  9.308080  3.351190
140  2 -0.8540  3.386650  9.250330  9.720190
141  2 -0.7966  3.708760  9.402030 15.225700
142  2 -0.7453  3.297750 15.065600  3.200070
143  2 -0.7352  3.327520 15.309000  9.564010
144  2 -0.7950  3.172260 15.592900 15.532200
145  2 -0.7879  9.388070  3.285490  3.608670
146  2 -0.8369  9.562650  3.204750  9.187800
147  2 -0.7936  9.206810  3.224440 15.257600
148  2 -0.8517  9.219620  9.329230  3.364370
149  2 -0.7343  9.180340  9.254020  9.767120
150  2 -0.7964  9.341560  9.228030 15.379900
151  2 -0.7430  9.386450 15.228000  3.421300
152  2 -0.8628  9.459170 15.343900  9.292510
153  2 -0.7430  9.471230 15.352700 15.230200
154  2 -0.8161 15.656000  3.164720  3.560570
155  2 -0.7456 15.568500  3.122070  9.418520
156  2 -0.8211 15.727800  3.542010 15.600300
157  2 -0.7728 15.092700  9.283760  3.347920
158  2 -0.8251 15.296100  9.032550  9.590330
159  2 -0.7701 15.401000  8.928790 15.465700
160  2 -0.7801 15.565400 15.327700  3.106100
161  2 -0.7777 15.167200 15.158900  9.368870
162  2 -0.7526 15.350000 15.585800 15.629900
163  2 -0.8249 18.624200  0.036011  3.305690
164  2 -0.7640  0.369027 -0.043469  9.362110
165  2 -0.7351 18.662400 18.509300 15.639400
166  2 -0.8134  0.494492  6.242950  3.371850
167  2 -0.7804  0.665205  6.196280  9.377190
168  2 -0.7758  0.524682  6.288890 15.440600
169  2 -0.8009  0.511131 12.431000  3.548830
170  2 -0.8325  0.181836 12.327800  9.400030
171  2 -0.7845 18.474000 12.411400 15.610200
172  2 -0.7825  6.189150 18.373000  3.624300
173  2 -0.8037  6.367220 18.454300  9.325170
174  2 -0.8043  6.342870 18.269200 15.381700
175  2 -0.7652  6.369170  6.128610  3.370300
176  2 -0.8058  6.772220  6.306330  9.363160
177  2 -0.8615  6.282490  6.342170 15.624400
178  2 -0.8230  6.438070 12.424700  3.382530
179  2 -0.8372  6.360970 12.249900  9.131170
180  2 -0.7647  6.624200 12.395200 16.019100
181  2 -0.8510 12.566300 18.243600  3.377680
182  2 -0.7427 12.124600  0.361680  9.257120
183  2 -0.7154 12.063300  0.200139 15.627100
184  2 -0.8408 12.350300  6.170920  3.298570
185  2 -0.7685 12.385500  6.002280  9.678930
186  2 -0.7673 12.578800  6.096860 15.618900
187  2 -0.6861 12.503900 12.104300  3.657410
188  2 -0.7846 12.060600 11.967300  9.600750
189  2 -0.7413 12.252500 12.441800 15.693000
190  2 -0.8116  0.494178  3.026150  0.495519
191  2 -0.8014  0.309388  3.311680  6.640980
192  2 -0.8675 18.256600  3.188180 12.565900
193  2 -0.8112 18.332500  9.218090  0.252362
194  2 -0.7591 18.853200  9.436720  6.606890
195  2 -0.7358 18.625200  9.275550 12.319200
196  2 -0.7969  0.230989 15.715600 18.132500
197  2 -0.6863 18.511600 15.427300  6.105760
198  2 -0.8763  0.138638 15.460400 12.220100
199  2 -0.7776  6.282900  3.470050  0.384318
200  2 -0.7609  6.365330  3.062870  6.471140
201  2 -0.7885  6.043420  3.455020 12.742600
202  2 -0.8442  6.332570  9.328900 18.775600
203  2 -0.8341  6.497410  9.150550  6.416800
204  2 -0.8176  6.268570  9.031400 12.750300
205  2 -0.7142  6.482290 15.446900  0.271740
206  2 -0.8028  6.532690 15.227400  5.983710
207  2 -0.7662  5.772840 15.822600 12.385300
208  2 -0.8750 12.452700  3.461020  0.304951
209  2 -0.7660 12.320000  3.627190  6.492680
210  2 -0.7877 12.407100  2.997650 12.332300
211  2 -0.7241 12.281100  9.233710  0.290008
212  2 -0.8867 12.429100  9.293110  6.569110
213  2 -0.7204 12.384500  9.223360 12.307700
214  2 -0.7529 12.419700 15.236700 18.592100
215  2 -0.7834 12.285900 14.740100  6.453800
216  2 -0.7647 12.247200 15.263700 12.235900

