Generated by pymatgen.io.lammps.data.LammpsData

504  atoms

  2  atom types

0.000000 17.774667  xlo xhi
0.000000 21.986255  ylo yhi
0.000000 41.650458  zlo zhi

Masses

1  208.9804
2   78.9600

Atoms

1    1  0.3943  5.413740  5.172570  6.429510
2    1  0.6166 13.782200  8.334950  4.200540
3    1  0.5620 12.580800  0.567688 13.350300
4    1  0.1488 16.044700 12.195900  8.265160
5    1  0.0230  2.141870  2.646390 16.430200
6    1  0.0215  0.430594  1.496890 13.842700
7    1  0.6067  7.355180  8.773460 13.565000
8    1  0.4924 -0.204952 11.233300 15.560700
9    1  0.7518 14.884800 21.303900  8.862430
10   1  0.2795 16.246900  8.286600 10.693400
11   1  0.6939 11.219400 11.206600  3.668210
12   1  0.6977 13.897600 18.037100 11.401700
13   1  0.2140  4.429520  7.839800 13.529900
14   1  0.2165  1.544980  8.650500 15.477700
15   1  0.1453  0.523840  5.584040 13.904800
16   1  0.4949  8.294510  3.460110 14.166200
17   1  0.6083 11.622500 18.732200 15.078200
18   1  0.2975  3.337800  0.595256 18.342600
19   1  0.8497  6.463390 17.540400 15.407600
20   1  0.3949  6.940520  8.942590 17.868400
21   1  0.4499 15.428700  1.798470 24.378600
22   1  0.6998 13.099200 14.562100 10.839300
23   1  0.5147 11.095600  3.889660 15.917800
24   1  0.3861 12.617500  0.559354 16.561200
25   1  0.8355 16.498400 16.613200 36.744100
26   1  0.5580 16.268800 22.165100 41.668300
27   1  0.3963  3.100120  5.088170 40.884100
28   1  0.5391  4.170750  0.869501  2.598360
29   1  0.0588  5.461410 12.863100  7.535140
30   1  0.2365  4.724940  7.441590 10.245600
31   1  0.6608  5.730050  4.029060  3.118020
32   1  0.2920  1.959740 10.093400  1.303780
33   1  0.8462 13.471300  7.321290  0.759482
34   1  0.3079  3.788680  8.699340  3.403360
35   1  0.2104  0.526500  1.977770 35.107900
36   1  0.6257 16.583600 10.718300 36.533000
37   1  0.6345 15.300800  0.466217 30.112600
38   1  0.6850 -0.408021 12.067900 39.063900
39   1  0.7634 13.297900  3.239570  5.555390
40   1  0.4140  7.542030 12.691100  9.660170
41   1  0.4990 12.103300  5.399650 38.068900
42   1  0.5009  4.788110 10.264700 32.785500
43   1  0.5326  9.541570  5.498850 39.726600
44   1  0.1436 17.043600  5.518500 37.230300
45   1  0.3816 17.283700 19.138300  2.796040
46   1  0.6192  2.598840 19.673900 40.891200
47   1 -0.0062  0.176797 17.578200  5.612500
48   1  0.7215 16.701200  6.608330  1.577080
49   1  0.2753  0.445912  7.916550  7.827210
50   1  0.2833  5.474080  2.202880 16.191400
51   1  0.2809  5.688130  6.059430 40.095100
52   1  0.0120  2.486550 12.240700  6.934810
53   1  0.6512 10.858100 11.578000 12.007200
54   1  0.5451  3.660850  2.527710  6.966270
55   1  0.3962  8.176860 11.978300  5.681400
56   1  0.1749 17.161800  6.596130 16.870600
57   1  0.7684  9.763510  8.096060  8.118670
58   1  0.3734 13.694400 18.875600  3.747930
59   1  0.4564  4.786680 13.258000 41.447900
60   1  0.6394 13.208100 13.277500 41.043900
61   1  0.7721  9.827000  7.259320  4.864980
62   1  0.3341 13.723500 16.198700  0.262767
63   1  0.6236 16.031900  4.270740 11.359800
64   1  0.2935  2.846300  8.464170 29.730100
65   1 -0.0167  2.346750  9.768520  9.672480
66   1  0.5027  1.125590 13.446700 34.827000
67   1  0.0238  1.059960 13.482000  9.914620
68   1  0.1499 15.769100 15.304900  5.305650
69   1 -0.0461  2.813090 15.613600  8.133890
70   1  0.3383  1.368300  7.118340 39.033400
71   1  0.7598  7.311960  6.888500  1.756020
72   1  0.1453 17.177500 15.083400  8.305690
73   1  0.1181  5.880090  5.262430 35.737400
74   1  0.7470  5.610550 21.532200  7.033210
75   1  0.4125  2.522520 11.256300 13.762500
76   1  0.4441 12.991100 10.091800  7.733890
77   1  0.7805 12.525500  4.408570  9.869870
78   1  0.1115  2.948110  5.679800 11.968900
79   1  0.1184  3.394540 15.571500 11.043700
80   1  0.2782 15.737500 17.473800  7.370520
81   1  0.8408  9.850710  9.626520  0.300298
82   1  0.6357 10.118900 17.207800 38.005200
83   1  0.0935  4.959250  8.050200 37.121900
84   1  0.0824  0.734858 14.637300  5.375270
85   1  0.0210  0.216933 11.122500 11.744700
86   1  0.5037  5.081960 19.956100  2.631350
87   1  0.4709 16.160700  9.670300  5.497620
88   1  0.1834 14.504100 10.751600 10.516200
89   1  0.5272  0.016129 21.871700 11.475700
90   1  0.1671  5.522400 10.334600  8.620770
91   1  0.7430 16.540300 12.936400 20.186000
92   1  0.8803 10.326400  0.958916  7.994030
93   1  0.3162  3.226020 16.075800  4.572220
94   1  0.3774  0.884826 12.664400  0.502318
95   1  0.7236  9.650440 14.096000  7.353700
96   1  0.5876  0.808582  0.255649  4.611590
97   1  0.7154  3.314790  8.027390 24.436600
98   1  0.2300  2.954330 18.266200 20.228900
99   1  0.2712  6.420500  6.348900 15.936000
100  1  0.8832  2.268000 11.701400 20.170200
101  1  0.5075 13.370300  6.465850 29.563300
102  1  0.3758  7.787490  4.100330 21.038500
103  1  0.3022 10.338900  3.497940 19.894200
104  1  0.1895 -0.169161  4.981900 19.179000
105  1  0.4156  4.131010  0.360740 25.787500
106  1  0.3375  2.562810  0.660332 34.294200
107  1  0.4244  0.517412  7.165090 30.944900
108  1  0.5347  6.571770  7.714850 32.299700
109  1  0.7832 11.104500 19.068100 21.696400
110  1  0.6173  5.051360  9.795050 21.811200
111  1  0.3472 17.255000  3.321690 26.012600
112  1  0.7899 10.844600 17.708300 33.934400
113  1  0.6333 12.100100 10.395400 26.271100
114  1  0.3520 12.487900  8.418680 36.364100
115  1  0.6397 15.633000 18.793500 15.225800
116  1  0.6542 13.810600  2.551910 32.673500
117  1  0.4558  4.877530 21.187000 32.851100
118  1  0.3449 14.879500 20.571900 19.895200
119  1  0.6219  9.942150 10.373300 21.960600
120  1  0.5034 14.467400  9.508030 24.066900
121  1  0.3718 12.298800 16.337400  3.074990
122  1  0.0109  1.562660 20.538600 21.338700
123  1  0.4197  4.608220  2.557230 11.666600
124  1  0.0327  3.427480  9.447660  6.706490
125  1  0.3762  2.508310 19.929800 16.847700
126  1  0.4375  6.065680  0.772127 23.029700
127  1  0.6033  4.334950 14.509900 13.727600
128  1  0.2132  2.081360  6.870270 18.259900
129  1  0.6703 12.955500  9.253690 16.436000
130  1  0.7119  7.814920 18.327000 19.029400
131  1  0.5026  1.867830 18.098300 12.158000
132  1  0.6804  6.729830  2.083320  9.789460
133  1  0.2771  4.906570  4.471020  9.584120
134  1  0.8202  9.451000 12.479500 17.350000
135  1  0.0973 15.431700  0.475280 15.124500
136  1  0.7366  9.386680 20.587400 11.938700
137  1  0.0022 17.087200  3.510430 15.930200
138  1  0.8180 12.115700 17.982100  8.166910
139  1  0.5911  2.887900 12.318500 24.274600
140  1  0.4076 10.334900 20.693700 17.984000
141  1  0.7139 -0.240224  9.229090 22.610100
142  1  0.0053  3.406910  5.724250 15.548600
143  1  0.0168  3.127350  3.371750 13.947700
144  1  0.4982 16.287200  3.673060 21.261400
145  1  0.7900 12.638200  6.865130 12.660700
146  1  0.0583  1.578980  8.282030 12.250600
147  1  0.5113 14.696000  5.870700 18.585000
148  1  0.7123  9.281550 14.410200 22.748600
149  1  0.6369  4.005410 15.436900 23.044700
150  1  0.3995  0.074437 22.012000 23.266500
151  1  0.7041  6.287940 20.093100 10.955200
152  1  0.6063  2.529930  3.805900 21.666900
153  1  0.8114  8.008260 11.871100 31.669100
154  1  0.5422  4.366390 11.603400 27.213100
155  1  0.3014 14.910100  3.056940 13.728900
156  1  0.6836  9.566940  0.720333 27.025400
157  1  0.3111  9.119350  6.124550 19.100600
158  1  0.8020  8.423590 17.627600 25.329100
159  1  0.8219 13.282000 14.875700 15.578700
160  1  0.5225  5.989840 16.236600  7.750340
161  1  0.1555  4.390440 21.307900 20.772900
162  1  0.6938 13.154400 17.261000 18.452600
163  1  0.5176  6.234110 19.241600 22.326100
164  1  0.1739 15.669100  0.831137 18.039900
165  1  0.7414 17.345100 14.919800 28.621800
166  1  0.7740 11.925200 21.865200  4.732260
167  1  0.7435  7.402400 15.810600 11.897500
168  1  0.4156  6.833550 21.545700 15.330900
169  1  0.5896  3.510610 14.221400 30.823800
170  1  0.2681  2.579660  5.629610 28.117400
171  1  0.2622  6.181040  6.600960 19.999500
172  1  0.4934  3.225990  6.438450 21.371600
173  1  0.4295 14.864000  5.182630 23.984000
174  1  0.1598  1.695190 18.102400  8.967670
175  1  0.1040 -0.001115 21.200000 19.082500
176  1  0.7061  9.367070  7.499620 24.626800
177  1  0.6338 15.721100 12.186900 25.641900
178  1  0.5700 11.987200  2.933520 28.702300
179  1  0.0607  0.088916 21.726400 16.140900
180  1  0.3558  6.649050  9.059520  6.291890
181  1  0.5844  0.230075 16.004000 21.812300
182  1  0.7249  8.250330  5.168010  9.961790
183  1  0.7715  7.381630 12.106400 14.424700
184  1  0.7241  6.801100 13.112100 19.865500
185  1  0.6808  4.771950 15.853600 18.802000
186  1  0.2646  2.932810  0.827596 23.061900
187  1  0.6164 13.233700 10.298000 19.275800
188  1  0.2624  8.623890  1.871060 16.777800
189  1  0.7042 12.257600 14.414700 20.218600
190  1  0.4532  0.900298 10.618000 29.479100
191  1  0.2488  3.591540  0.522133 14.284500
192  1  0.6568 16.606100 14.456600 12.796500
193  1  0.3505 12.224500 14.560800 38.326300
194  1  0.0340  4.372150 11.353800  4.844450
195  1  0.2503 -0.194220  2.855580 37.761400
196  1  0.7387  0.126574 15.580600 40.554200
197  1  0.3469  3.013040  6.615330  6.009640
198  1  0.5669 14.262000 13.086700  2.835830
199  1  0.7373  7.399870  0.791224 36.250900
200  1  0.5902 11.625500 20.380000  0.935871
201  1  0.8522 10.468600  3.841200  2.750430
202  1  0.6840  9.168860 13.835700  2.932260
203  1  0.6895 11.638200  1.666590 40.825600
204  1  0.2312 -0.371776 15.860100  2.994640
205  1  0.5842 10.072300 12.845000 38.700400
206  1  0.6756  8.346150 22.215900  1.914760
207  1  0.6687 17.374200  3.477080  5.218540
208  1  0.7767 11.470700 21.930800 37.066000
209  1  0.6474  9.687450 16.841100  0.835437
210  1  0.3745  2.517090 19.194800  4.672640
211  1  0.8346  4.371040  1.050190 40.586200
212  1  0.7777 11.865300 20.650100 29.719600
213  1  0.7268  8.227840 15.503900 31.050900
214  1  0.7703 14.358600 10.753500 29.150700
215  1  0.5484 15.102400  4.279570 39.988400
216  1  0.6322  2.754370  3.511600 30.324800
217  1  0.6305  0.311079 20.844600 39.003100
218  1  0.3046 16.790400 18.723300 21.473100
219  1  0.2295  0.054121  8.195150 28.217500
220  1  0.6131  5.683090  1.258730 30.073000
221  1  0.0746  1.601430  4.561670 35.846500
222  1  0.5786  2.424350 15.284700 25.846800
223  1  0.7531 14.473600 19.534800 32.915900
224  1  0.6959 12.621100  7.639070 21.884300
225  1  0.2524  4.469670  3.247070 34.201500
226  1  0.4301  9.711940  8.571790 32.933100
227  1  0.6347  0.198452  1.067580 31.873300
228  1  0.0119  3.649840  5.181270 37.440500
229  1  0.7843  6.249770  3.395520 27.670600
230  1  0.2808  3.745390  6.489540 34.442500
231  1  0.7651  5.988800 18.010900 40.498400
232  1  0.7509  9.627100 12.904300 27.236900
233  1  0.3314  8.719510  7.363220 21.892100
234  1  0.7186 10.708300  2.359460 34.232300
235  1  0.7237 13.882500 16.013600 24.904800
236  1  0.7847 15.342600  9.108920 33.648400
237  1  0.4870 12.037900  1.629960 23.430400
238  1  0.6657 13.287700 14.041900 27.765700
239  1  0.6638 15.131000 16.097100 31.414300
240  1  0.4408  9.408530  1.187570 22.391500
241  1  0.5122 14.894800 19.242000 41.036200
242  1  0.1420  0.036948  4.985550 28.739100
243  1  0.7820  8.469140 12.068300 35.458800
244  1  0.6686  1.604240  3.809040  2.044360
245  1  0.4222  2.774170 11.441800 35.576100
246  1  0.6993  6.434500 15.150100 38.793100
247  1  0.3869  6.486690 11.468700  2.639920
248  1  0.4464  2.081800  8.755230 33.328800
249  1  0.1622  4.563220  8.895370 39.708000
250  1  0.4724  5.508550 11.109800 38.852600
251  1  0.5952 10.657800  3.590220 25.623900
252  1  0.6428 10.623100  7.734500 29.645300
253  1  0.3180 15.234700  4.415400 35.297300
254  1  0.6880  3.271090 17.947300 30.172200
255  1  0.4392 13.003800 12.411500 36.746600
256  1  0.3357 14.321500  3.102320 27.030900
257  1  0.6373 16.187100  4.522270 31.614300
258  1  0.5296  8.073360 21.990100 33.056400
259  1  0.3018  2.165790 13.493600  2.834640
260  1  0.7280 12.125300 20.190800 26.397100
261  1  0.6178 11.156600  5.550720 32.715800
262  1  0.2092 15.492900  6.174810 27.083000
263  1  0.7786  8.719430  2.899750 30.917700
264  1  0.3776 15.528400  7.732960 36.366200
265  1  0.7322  1.159570 16.572100 32.918600
266  1  0.1809  5.000340 10.174400  0.522957
267  1  0.5885  2.815950  3.857320 24.901000
268  1  0.8212  8.577480 19.681600  5.237730
269  1  0.7024  6.932190 17.356900  3.360730
270  1  0.6462  4.361270 15.054900 36.570400
271  1  0.6614  4.673750 19.776100 26.855000
272  1  0.2985 12.005100  0.330827 20.748600
273  1  0.6345  7.253710 18.092800 33.589200
274  1  0.6369 11.918900 11.382800 33.960000
275  1  0.6519 15.729200 13.165200 32.958000
276  1  0.2264  2.542010 20.370200 24.099900
277  1  0.7616  8.487490 18.728900 29.341000
278  1  0.6434 14.452400  0.971588 38.839000
279  1  0.2900  9.399610  6.701510 37.065500
280  1  0.2652  7.627220  7.732760 35.341800
281  1  0.7929  3.657200 18.985800 35.714400
282  1  0.3296  2.941890  1.925890 36.935300
283  1  0.7625  0.224389 20.442000 29.055200
284  1  0.7131  1.120680 16.010400 16.962500
285  1  0.4367  2.053760 11.731300 31.989200
286  1  0.8892 16.836500  2.356650  8.611300
287  1  0.8190 17.208100 17.892200 25.967400
288  1  0.7083  7.623330  9.883620 28.047700
289  2 -0.4456  6.369590 13.082700 33.146100
290  2 -0.7889 15.598800  1.401550 11.062100
291  2 -0.7854  2.280080  2.836530  4.474750
292  2 -0.6016 14.548600 11.376500 39.172200
293  2 -0.7857 -0.775167 17.675000  0.478470
294  2 -0.6513 15.808900  1.389190  6.132970
295  2 -0.6462  6.462990 20.427200  0.270118
296  2 -0.5691 11.247700  5.527910 41.682700
297  2 -0.5711 12.877900  1.944400  8.832920
298  2 -0.8580 15.518100 15.262100 10.703400
299  2 -0.4781  8.486240 15.888900 33.941600
300  2 -0.5338  3.522810 20.838800 38.810400
301  2 -0.7166  2.019020 13.805200 38.364200
302  2 -0.8156  1.212020  9.025580 35.838400
303  2 -0.5661  5.620950  2.131860 38.463400
304  2 -0.8030  7.823480  7.959080 41.285600
305  2 -0.9539 14.217500 10.678800 35.160200
306  2 -0.6996  4.847190 21.352900 35.992700
307  2 -0.5010 13.943300 15.380300 34.674200
308  2 -0.5864 11.729000  1.423770  2.265640
309  2 -0.7000  9.885750 16.442300  3.482530
310  2 -0.5998 11.933000 11.815900  1.277740
311  2 -0.8097 14.666100 20.734100  1.782270
312  2 -0.9168 11.774500  5.924150 35.241200
313  2 -0.6912  7.565540 14.877900  5.707840
314  2 -0.2899  9.153690 17.309700  7.277030
315  2 -0.7554 15.739200 14.120800  0.152291
316  2 -0.4536 13.771900  4.792110  2.188440
317  2 -0.5926  4.687860 16.865900 34.091300
318  2 -0.7488  6.929330 22.110800  4.088590
319  2 -0.6657  0.022246  6.860340 33.646200
320  2 -0.6186 10.892300  2.001830  5.445360
321  2 -0.8578  7.838840  2.300980 33.758600
322  2 -0.7609  1.303020  9.965240 39.852500
323  2 -0.7324  2.652150 17.954600  2.264600
324  2 -0.5290 16.019000 12.776900 17.322800
325  2 -0.7852 10.614600 14.582100 41.081400
326  2 -0.6094  7.072530 13.014800 40.047300
327  2 -0.5815 12.024100  5.591890  4.933200
328  2 -0.6079 16.843700 18.349200 12.524100
329  2 -0.5259 12.224800  8.595380 40.472700
330  2 -0.6455  8.065890  3.102260  7.681000
331  2 -0.5737  7.798760  5.391660  4.654430
332  2 -0.7451  4.878580 22.130800  9.585840
333  2 -0.5977 14.005600 12.010200 13.808300
334  2 -0.5542  8.393570 21.676400  8.727990
335  2 -0.4750 15.674100  9.232020  1.857680
336  2 -0.8013 10.173400 19.825400  3.043710
337  2 -0.6337  8.946670 14.729100 10.108600
338  2 -0.5828 10.788200 20.362600  6.623920
339  2 -0.8669  8.084070  9.312490  3.936100
340  2 -0.6692 11.792100  7.922200  2.482730
341  2 -0.6437  5.267360  2.997560  0.389997
342  2 -0.7785  3.264470 22.081000  5.523830
343  2 -0.6829  1.281390  5.347440  7.648110
344  2 -0.5205 10.047300 10.908400 15.010200
345  2 -0.6679  0.892261  3.166980 10.208600
346  2 -0.5984 12.780600 20.543600 10.592300
347  2 -0.7772 17.670200 11.669000  4.221310
348  2 -0.6002 12.809600 15.428900  8.320430
349  2 -0.5355  7.566640 15.897800 17.853800
350  2 -0.7022  1.400650  1.695570 39.696600
351  2 -0.5713  8.353580  3.551510  1.338710
352  2 -0.5746  8.199290 18.045800 13.173600
353  2 -0.4571 12.707600 18.444900 36.792300
354  2 -0.5514  4.047480 16.860100 15.102600
355  2 -0.5472 15.569400  4.713940  7.436610
356  2 -0.8843  9.111760 20.344100 20.232100
357  2 -0.6187  6.873910 11.786000 17.444500
358  2 -0.6362  0.722833 18.464700 15.447600
359  2 -0.7061  0.968762  6.667130  3.595890
360  2 -0.5332  8.602260 11.995100  0.938565
361  2 -0.5402 12.248100 12.533000 17.548500
362  2 -0.6570  5.598420 18.127100 24.686000
363  2 -0.5827  7.315420  9.123400 10.821100
364  2 -0.7634 13.608500 10.820400  4.954300
365  2 -0.4563 11.303100 17.242800 10.926600
366  2 -0.4387 13.177500 13.307900 32.192300
367  2 -0.8225 10.889100  5.973330 22.992800
368  2 -0.6066  1.338530 14.245600 14.403300
369  2 -0.7901 13.755300  3.467250 22.158100
370  2 -0.6840  6.690070 17.573400  9.757730
371  2 -0.5854 11.704500  6.342580  8.243250
372  2 -0.6184  4.724510 10.357100 15.111900
373  2 -0.7960 10.181700 10.838700  7.040510
374  2 -0.6760 -0.084553  4.373420 41.616500
375  2 -0.4565 10.840000 13.952800 13.289600
376  2 -0.6109 10.957500  9.255670 10.712200
377  2 -0.7469  5.437770 11.781000 12.301000
378  2 -0.5818 11.965700 13.922800  5.093450
379  2 -0.7345 14.455600  6.224410 10.720600
380  2 -0.4282 16.265600 15.564000 15.973200
381  2 -0.5685  7.082200 11.512400 23.079700
382  2 -0.6914 11.825400  6.996740 26.680300
383  2 -0.7903  7.375850  6.859390  7.581360
384  2 -0.6711 12.137200  4.263780 13.328400
385  2 -0.9372 13.523300 19.800600 17.272600
386  2 -0.7021  5.686800  7.064770 22.924800
387  2 -0.6961  2.463330  9.703690 22.451700
388  2 -0.8234 16.239900  7.294810 14.380600
389  2 -0.7858  5.508160 19.153800 17.563500
390  2 -0.6297  0.049709 21.605200  8.816550
391  2 -0.6610 13.815500 17.068100 14.217900
392  2 -0.6447  0.417593 10.793600 25.349500
393  2 -0.4466  9.177170  6.430200 12.807000
394  2 -0.6441 13.424600 18.209100 20.939700
395  2 -0.8421  2.742950 15.740300 20.576300
396  2 -0.4576 10.641100 15.670400 16.584200
397  2 -0.6104  4.855190  2.784760 19.858900
398  2 -0.8661  6.477960  4.581960 11.820800
399  2 -0.5111  8.084050 20.009700 26.671300
400  2 -0.6665  3.514070  9.325360 18.882400
401  2 -0.4784 11.243500  7.327870 15.198600
402  2 -0.6722  9.874840 12.739300 20.437000
403  2 -0.7839 13.239500  3.143310 18.026000
404  2 -0.6171 12.155300  6.852020 18.978000
405  2 -0.6868  4.899850 14.428800  2.748730
406  2 -0.7692 14.164600 19.656500  6.744720
407  2 -0.8855  7.075730  4.071710 17.851000
408  2 -0.4012  3.432630 13.454100 17.355800
409  2 -0.6094  0.767761 12.876500 22.107000
410  2 -0.7836 15.312300  7.545950 21.823300
411  2 -0.5573  5.060950  3.706440 23.395000
412  2 -0.5848  5.073390  8.725910 27.102000
413  2 -0.6389  0.003049 10.370200 19.472300
414  2 -0.5280 14.937500 13.622300 22.653800
415  2 -0.9994 14.614400  3.059050 30.101600
416  2 -0.4412  5.045960  5.521700 26.344100
417  2 -0.6569  4.501180 12.706000 21.689800
418  2 -0.6345 17.060400 15.254900 25.737400
419  2 -0.9479 12.707300  1.460210 25.916500
420  2 -0.9054  1.190800  1.746080 20.293700
421  2 -0.9261 10.830700 21.644700 14.785500
422  2 -0.8923 15.034900  8.564660 28.054300
423  2 -0.4031 14.886100 18.559100 24.816300
424  2 -0.7463  6.776410  1.246300 12.470100
425  2 -0.7765 15.825200 12.853200 28.271500
426  2 -0.7133  2.831910  0.811914 30.854600
427  2 -0.7551 12.646200 10.420500 22.127600
428  2 -0.6465  6.012940  3.694290 30.655700
429  2 -0.4939 10.185700  1.085000 11.274100
430  2 -0.6493 11.492900 11.866100 28.591900
431  2 -0.6561 10.273200  9.745610 18.712100
432  2 -0.4490 11.715000 18.201000 28.909700
433  2 -0.9017  0.727492  2.644000 23.788000
434  2 -0.9251  0.848285 14.084000 31.876000
435  2 -0.6814  2.280260 18.647900 27.611100
436  2 -0.8582  4.209000 11.134600 30.451700
437  2 -0.6194  9.406380  3.698660 28.102600
438  2 -0.5862 10.120000 16.751300 20.236600
439  2 -0.6099 15.017800 15.673200 19.661500
440  2 -0.4688  7.369990 14.419400 24.964100
441  2 -0.9206  0.634081  3.607630 31.853000
442  2 -0.7830 17.272000  9.739620 31.896900
443  2 -0.2640  8.555160 21.903000 38.621200
444  2 -0.6104  6.531360 16.563100 21.716600
445  2 -0.4894 10.847500 21.458600 33.837400
446  2 -0.6392  8.198500  2.190370 24.539900
447  2 -0.6328  9.601120 10.419300 25.392300
448  2 -0.8426  4.823240  6.628270  2.081660
449  2 -0.4935 14.640400 20.303700 27.921800
450  2 -0.7066  1.793620  0.522304  1.050230
451  2 -0.6024  7.162130 14.899500 14.430800
452  2 -0.4734  7.019790 16.527100 28.057800
453  2 -0.7364  4.000840  6.159760 31.868700
454  2 -0.6987  1.596890  1.963230 27.601700
455  2 -0.5072  9.895380 13.373600 33.712200
456  2 -0.7249  6.189490  0.610491 27.296600
457  2 -0.4919 10.112700 15.786700 27.380800
458  2 -0.9290  7.369920  9.789880 33.747000
459  2 -0.5631 13.816300  1.261630 35.235200
460  2 -0.6841 -0.018117 17.373000 30.598800
461  2 -0.5335 13.105800 20.709700 23.659000
462  2 -0.4179  1.289010 18.051600 37.979500
463  2 -0.6827 14.309600  6.570580 32.545600
464  2 -0.7073  1.896010 13.171800 28.003500
465  2 -0.6186  5.261050 12.153400 35.813200
466  2 -0.5630 15.973700  7.375260 40.244100
467  2 -0.3604  8.102170  7.415510 27.008700
468  2 -0.5384  7.043170 16.134300  0.757547
469  2 -0.7885  1.234840  6.608540 23.640000
470  2 -0.5848  2.642290 19.437300 32.861600
471  2 -0.7176 16.490000 13.626900 35.845800
472  2 -0.5101 11.821900 17.755000 24.332400
473  2 -0.5388 14.852800 16.523400 28.423900
474  2 -0.5895  6.657990 13.559500 29.872600
475  2 -0.7058  9.287240 21.937100 29.508400
476  2 -0.6870 12.067900 12.754200 25.140800
477  2 -0.5272  0.125825 21.238400 26.446300
478  2 -0.6136  8.489990 20.959000 23.676100
479  2 -0.8231  1.294160 17.538600 24.038600
480  2 -0.7150  5.632900 19.109800 30.584500
481  2 -0.4973  9.425570 19.258500 35.954800
482  2 -0.5606  3.611250 16.320500 40.763600
483  2 -0.7247  8.544290 10.273200 37.624000
484  2 -0.5003 12.703900 17.514300 31.861500
485  2 -0.8221 12.807500  2.948760 38.295800
486  2 -0.3294 17.347100 19.034100 35.471000
487  2 -0.5133  9.057320 18.995500 40.497400
488  2 -0.5007 14.352300  2.858760  0.335222
489  2 -0.6562  8.701810 14.630200 37.065100
490  2 -0.6703 13.159700 21.701300 31.573300
491  2 -0.7485 12.443700 21.155500 39.777900
492  2 -0.6416 15.156500 16.237400 39.263400
493  2 -0.7124  5.899050 18.981100  5.731600
494  2 -0.5316 12.811900  9.998520 31.644100
495  2 -0.6641  4.827630 19.792800 14.087900
496  2 -0.5681  9.447080  2.927010 36.967400
497  2 -0.5944  1.331280 16.157000 35.508400
498  2 -0.5386  6.302740 17.652300 37.569900
499  2 -0.6679  8.930170  6.190890 30.878200
500  2 -0.6510  9.581600 19.010400 31.758100
501  2 -0.7083 16.480200 22.036100 37.307100
502  2 -0.6785  9.556720 10.419300 30.243800
503  2 -0.6583 16.967600 20.643200 31.968800
504  2 -0.7592 11.272800  3.071050 31.270500

