Generated by pymatgen.io.lammps.data.LammpsData

320  atoms

  2  atom types

0.000000 24.637781  xlo xhi
0.000000 17.058433  ylo yhi
0.000000 27.370788  zlo zhi

Masses

1  208.9804
2   78.9600

Atoms

1    1  0.6869 -0.869150  4.081640  3.181630
2    1  0.7234  1.169880  1.500270 22.232200
3    1  0.7351 -0.651959  9.941030  2.496360
4    1  0.5714  3.745950  4.621810 16.644900
5    1  0.8705  7.695100  7.835660  8.945460
6    1  0.7778  9.452050 11.877400 11.131400
7    1  0.6417 -1.380840 13.953000  2.288640
8    1  0.7410  2.240000  9.635920 11.177400
9    1  0.6393  4.537950  2.864230 10.284000
10   1  0.5494 19.858900 17.757800 20.702000
11   1  0.6282  1.745370 15.061200 19.360800
12   1  0.5832 21.759100  2.976310 23.013500
13   1  0.6308 14.112100 17.458500 19.212000
14   1  0.8008 13.906900  5.976050 23.590100
15   1  0.6820 19.916700 12.428300 13.365600
16   1  0.3980 14.915700 17.078800 25.564600
17   1  0.6860  7.390730 17.456200  1.801920
18   1  0.7754  7.467020  9.103450 19.443600
19   1  0.7384 -0.817962 18.200000 26.507700
20   1  0.7239  7.442060  1.936500 25.355400
21   1  0.7021 19.306400  8.188900 12.084500
22   1  0.6932 17.648400 10.812300 15.534700
23   1  0.6421 17.441300  8.421110 25.315500
24   1  0.7907 14.092500 11.632000 19.758500
25   1  0.4483 20.307500  2.366200 17.557900
26   1  0.4170 15.300100  2.667960 24.991700
27   1  0.6970  5.647670 11.567700 10.311700
28   1  0.6824 -2.387680  7.651440 25.645300
29   1  0.7738 16.498700 16.133800 13.779200
30   1  0.7750 10.494200 11.817300 14.928600
31   1  0.5763  0.088474 16.812300 13.414000
32   1  0.7494 14.589700 13.596500 16.779500
33   1  0.3738  1.122220 16.075900  6.192120
34   1  0.5617 16.156200  3.414590 21.253300
35   1  0.6863  5.545880 13.554400  3.215440
36   1  0.8292 -1.316330  8.640580 13.587300
37   1  0.6852 11.344600  1.476820 10.552400
38   1  0.7038  5.776200 13.305700 17.057300
39   1  0.6922  8.477120 16.173100  8.592810
40   1  0.7522 14.118900  9.398010 16.424600
41   1  0.5422 21.131400 16.711300  8.259630
42   1  0.5799 -1.246560 16.783600 23.306500
43   1  0.7185 -0.913466 12.368900 15.585500
44   1  0.6890 18.862900 11.992200 26.479100
45   1  0.6626 12.083300  4.243560 14.103400
46   1  0.6092 12.890900  8.325080 26.280900
47   1  0.6150 12.321100 17.332200 14.728800
48   1  0.6511  6.986890  9.863970 27.377300
49   1  0.7632  6.917410  9.903560  4.096300
50   1  0.5768  3.731740  6.550090 20.064400
51   1  0.6937  3.071140  1.529500  2.613470
52   1  0.7058  8.221050  8.576150 15.158200
53   1  0.7616 20.861100 17.824100 13.253700
54   1  0.7234 10.144700  5.809640 24.599000
55   1  0.5216 -0.906560 12.837400  6.160870
56   1  0.6159  3.870810 18.382800 18.768000
57   1  0.7105  7.127260  6.096070 27.092900
58   1  0.6499  5.621940  4.328200 22.485900
59   1  0.5813 21.753200 10.524800  9.918340
60   1  0.7287  3.722280 12.487700  0.342806
61   1  0.7155 11.563300  6.316170 16.627600
62   1  0.5611 18.315500 18.254000 24.816200
63   1  0.6882 10.534400 10.874000  7.448360
64   1  0.5896 21.404500  6.756290  4.448610
65   1  0.7133  3.338060  8.609530 25.439600
66   1  0.4983  3.661100 14.601600 10.692200
67   1  0.6327 22.184100 17.378600  4.347920
68   1  0.7666 -2.377280 15.847200 17.637100
69   1  0.6422  7.958240 14.079600 22.456500
70   1  0.6906 11.250300  1.934980 17.307200
71   1  0.7003  8.676400  9.159820 23.327200
72   1  0.8114  8.456030  3.344800  9.588960
73   1  0.5523  6.921240 18.094000 21.422100
74   1  0.8294  6.963370  5.670760 13.331700
75   1  0.6584  5.498880 16.686600 25.547800
76   1  0.5709  7.719570 12.945100  7.282660
77   1  0.7087  0.299793 12.381000 26.724600
78   1  0.5548  4.420550  8.077820 15.404500
79   1  0.6214 19.245000 15.676200  5.607200
80   1  0.7037 -0.474973  5.125250 12.598700
81   1  0.5436 18.590600  5.092530 18.874300
82   1  0.6296  2.800340 11.230500 14.225400
83   1  0.6592  2.304380 15.605900  1.380380
84   1  0.6295  2.919520 15.080300 14.950600
85   1  0.6961 11.279000 18.235200  0.341593
86   1  0.7008 15.487200  7.159330 18.158300
87   1  0.7108 14.625200 10.846700 23.866400
88   1  0.7426 18.174000  5.132370 14.685600
89   1  0.6745 11.509900  3.113610 20.487600
90   1  0.7154  6.452980  4.808740  4.399910
91   1  0.8659  3.726610  3.628350 25.682200
92   1  0.7298 11.146300  7.786790 12.926700
93   1  0.6545 20.710100  4.802420 26.629300
94   1  0.7429  0.979105  6.233700  9.470990
95   1  0.7075 20.780700 10.925500  2.679190
96   1  0.6432 -1.397530 13.864600 11.352700
97   1  0.7285 19.979600  4.361490 10.573900
98   1  0.6289  4.347780 15.360500 21.691700
99   1  0.6450  5.256080 18.205800  7.544900
100  1  0.7458 18.906600 13.294500 17.801100
101  1  0.7995 13.910900 12.222800 11.727900
102  1  0.7756 11.107800  6.613710 20.262900
103  1  0.7041  2.684650  4.347720  5.406090
104  1  0.6667  9.290470  5.672880  3.499750
105  1  0.6385 17.256400  1.540330 16.037200
106  1  0.8129  8.430120 18.219200 12.581200
107  1  0.8482  5.868590 17.564800 15.607000
108  1  0.6654  9.845190 15.547400 15.377600
109  1  0.6197 17.790000 11.703500  9.724120
110  1  0.7070 10.322800 11.102500 20.849700
111  1  0.7292 15.947800 15.332400  9.617600
112  1  0.7553 18.084300 18.249500 10.485900
113  1  0.4689  1.421230  2.493300 11.071800
114  1  0.8725  1.038310  6.572610 27.339400
115  1  0.5862  2.525940 12.805000  7.407980
116  1  0.8306  4.054010 10.016100 21.591600
117  1  0.7022 -0.140242  2.208370  7.535540
118  1  0.6941 10.596100 11.518000 25.464000
119  1  0.4782 19.765300  9.216080  7.485270
120  1  0.7833 12.481400 14.068200 21.571300
121  1  0.7902  3.791750  8.098570  2.591950
122  1  0.7428 12.016400 15.316200 24.876200
123  1  0.8450 15.663400  7.683080 13.272600
124  1  0.4963  8.914490 13.900800 18.720200
125  1  0.6658  1.729230  7.630000  6.009000
126  1  0.6954 -0.020477  1.819750 17.989200
127  1  0.2787  0.389771 15.280900  8.615920
128  1  0.7818 16.512400 13.895600 21.943500
129  2 -0.6041  9.316920  5.635330 14.942000
130  2 -0.5964  8.416080 16.700600 26.538200
131  2 -0.6616  0.203974 15.861700 16.150400
132  2 -0.3940 -1.850740  3.809120 20.213200
133  2 -0.6825  0.522156  7.731040 11.938300
134  2 -0.0685 17.137400 12.681100  4.203790
135  2 -0.3631 -1.764230 13.544000 18.596900
136  2 -0.1836 14.435000 14.532500  0.717913
137  2 -0.5606 21.802600  6.984850 11.059200
138  2 -0.7961  4.577340 16.066400 17.781800
139  2 -0.7598  7.866140 10.594600  8.779350
140  2 -0.4600  1.663830 15.581900 22.867200
141  2 -0.5908 15.975400  4.445000 16.326000
142  2 -0.4198  7.383270 12.103000 25.130000
143  2 -0.5803 -0.872575  4.046700  9.856640
144  2 -0.6797 12.042600 16.314200 17.784200
145  2 -0.5858 19.592500 16.121000 11.857700
146  2 -0.2213  0.169787 10.158100 23.464000
147  2 -0.5110 19.768200  7.751480  0.381696
148  2 -0.5184 -2.157350 15.520100 13.609300
149  2 -0.1088 12.003900 15.691700  2.071150
150  2 -0.4342  7.717690 15.769400 14.007100
151  2 -0.2576 11.164000  8.226600  9.002530
152  2 -0.5255  9.178800  1.748880 15.298400
153  2 -0.4993  8.716140  2.975900  0.450267
154  2 -0.6573 17.584200  7.701080 15.139700
155  2 -0.3478  3.863660  9.636100  8.441330
156  2 -0.4471  7.466390  6.632660 17.584300
157  2 -0.6234 16.891900 13.427000 11.409300
158  2 -0.4387  8.050830 12.127900 13.707800
159  2 -0.6693 -1.841530 10.150300  4.700220
160  2 -0.5976  1.906900  2.553250 15.387800
161  2 -0.6037 -0.061074  5.014090  6.053650
162  2 -0.6165 -0.558245 16.825500  2.155600
163  2 -0.5974  8.257630  8.084450 12.426500
164  2 -0.5320  6.877270 10.859700 16.372800
165  2 -0.5209  4.254020  5.821290 13.152300
166  2 -0.5650 12.153200  4.131900 23.985700
167  2 -0.6270 -1.945800 10.469500 27.335200
168  2 -0.4734 11.700400  5.450380 27.104500
169  2 -0.7573  9.567720  3.723670 11.610700
170  2 -0.6238  5.501940  2.394660  0.173089
171  2 -0.4796  5.541990  4.032550  7.072160
172  2 -0.7294  7.895990 10.738700 21.581400
173  2 -0.5835 11.459000 10.610800 11.928400
174  2 -0.6863  9.570760  9.131150 27.127300
175  2 -0.6997 21.200800 13.379500  8.298710
176  2 -0.7047 11.434500  7.821630 22.919000
177  2 -0.2426 17.093000 10.520600  6.601620
178  2 -0.4545  3.153980  4.898630 23.537500
179  2 -0.4414 13.244800 12.557700 25.961000
180  2 -0.4629 19.225300 15.979700 23.158400
181  2 -0.5780  3.978300  6.329460 26.883000
182  2 -0.6178  9.918750 10.807000 18.114500
183  2 -0.4000 15.321500 13.216100  8.303160
184  2 -0.2826  0.952476  8.248620 16.213700
185  2  0.0924 13.780200 12.560400  4.172560
186  2 -0.5110 21.133600 13.959600 15.758500
187  2 -0.7642 14.410200 14.824100 23.617000
188  2 -0.5986  5.308860 14.737400  7.140240
189  2 -0.0161 16.626500 13.384000  2.338280
190  2 -0.5500 10.196100  4.826130 18.672200
191  2 -0.1629 16.842700  6.768320  8.191370
192  2 -0.3853 17.547200 11.590200 22.479900
193  2 -0.0924 11.824800 15.906800  5.968760
194  2 -0.5200 -0.190379  2.957550 24.238700
195  2 -0.4757  7.737240 14.370900 10.739600
196  2 -0.7035 11.678400  9.138200 15.437500
197  2 -0.7070  6.873790  7.421690  2.154370
198  2 -0.6627  6.824930  4.643410 24.873700
199  2 -0.1074 12.664700  7.496820  4.012410
200  2 -0.7016 14.738600 14.450400 19.955400
201  2 -0.4819  5.457740 11.699000  5.678810
202  2 -0.4710  8.283840  6.124170 21.250800
203  2 -0.5908  6.240460  8.296790 23.458600
204  2 -0.4426  1.736900 12.472700 16.821300
205  2 -0.3235 21.235300  2.138860  2.726860
206  2 -0.2770 19.497400 10.411700 18.667200
207  2 -0.5120 14.915300  9.917920 26.756100
208  2 -0.5295 17.885800 16.167000 19.735400
209  2 -0.5343  4.448390 17.223300 12.213500
210  2 -0.4626  1.713950 14.728900 26.167200
211  2 -0.4056 21.895900 14.161200 27.197500
212  2  0.0517 16.580300  5.483850  5.253350
213  2  0.0079 16.355200  6.950320  2.061740
214  2  0.0264 14.816100  4.481120  9.894800
215  2 -0.7037 15.735600 11.010000 17.959200
216  2 -0.2700 18.243600  2.654970  0.455421
217  2  0.0120 -0.790186  6.971120 19.613000
218  2 -0.5400  3.938230  4.745030  2.776970
219  2 -0.7955  1.391780 12.958900 10.143500
220  2 -0.2885 17.993800 10.656400  1.663020
221  2 -0.5180  5.771610  2.575990 17.543500
222  2 -0.5632 17.338300 13.681200 15.282400
223  2 -0.7245 -1.209070 17.513400 10.315400
224  2 -0.6930  5.296890 10.815700  2.182770
225  2 -0.4648  6.195660  1.784450  4.441170
226  2 -0.5661 18.128300  2.477870 12.987100
227  2 -0.6032  4.503730 13.337900 14.074900
228  2 -0.2907 10.524500 12.926100  4.428880
229  2 -0.1264 22.141100  8.501100 17.036400
230  2 -0.6590  7.178030 17.761400 10.311700
231  2 -0.5492 21.143600  1.372510 26.012000
232  2 -0.6396 17.305700 10.088300 12.242600
233  2 -0.5126 11.559400 17.980600 24.688600
234  2 -0.7333 11.245400 16.836200 12.416500
235  2 -0.2182 19.583200 15.707500  2.324660
236  2 -0.4770 -0.156794  9.780940  8.700290
237  2 -0.0116 15.137100  2.879800  7.924540
238  2 -0.1648 20.042100 13.623800 20.542700
239  2 -0.4631  8.304610  1.570330  7.233640
240  2 -0.5611  1.820600  3.248480 20.081500
241  2 -0.2841 13.495800  6.792860 11.512300
242  2 -0.4795  4.590050 12.674700 20.013300
243  2 -0.6937  2.427360  3.395510  8.190600
244  2 -0.6416  5.214230 14.935400  0.354666
245  2 -0.5066 21.128200  3.920030 13.413600
246  2 -0.5865 14.015300  5.304840 20.915200
247  2 -0.6915  0.907234  1.789500  5.103800
248  2 -0.6815 19.597200 17.192900 16.311500
249  2 -0.4265  6.554100  5.201520 10.000800
250  2 -0.6416  4.720350  8.986860 19.313300
251  2 -0.3897  2.498200  9.928730  4.124550
252  2 -0.4580  2.434220 17.932400 25.344500
253  2 -0.4639  9.077870  2.280470 22.942200
254  2 -0.0257 -1.223610 12.905300 22.951700
255  2 -0.4520 17.440300  5.724700 11.669100
256  2 -0.1800 10.536500 14.434300  1.534070
257  2  0.0368 13.565600 11.311800  2.288290
258  2 -0.3894 17.397400  7.037440 19.943300
259  2 -0.0288 14.234400 10.267700  7.288570
260  2 -0.8062  4.366520 18.334500 22.171100
261  2 -0.4781  1.378530  2.959430  1.059970
262  2 -0.3701 14.074100  2.964230 12.951500
263  2 -0.4911  8.895100  8.444220  5.723360
264  2 -0.7442 21.110600 10.109800 12.766600
265  2 -0.1885 11.592600  3.968490  4.238440
266  2 -0.6943 10.349300 13.405200 23.210500
267  2 -0.7233 21.604600 13.624900  4.314370
268  2 -0.0977 19.213300  3.400690  4.536490
269  2 -0.4664  5.270860  7.417040  5.353720
270  2 -0.6594 13.821400  6.715170 15.113700
271  2 -0.1373 14.398300  1.429600  2.788670
272  2 -0.6336 16.309100  4.897710 23.851400
273  2 -0.4447 15.188500  8.479510 22.793200
274  2 -0.4590  3.727140 10.951100 24.016700
275  2 -0.3260  3.583880  7.088100 10.126400
276  2  0.0771 21.307400 10.657700 20.978500
277  2  0.0674 13.018800 17.425900  4.673750
278  2 -0.6163 12.245000 13.462600 14.560000
279  2 -0.6613 13.411300  3.459460 17.790400
280  2 -0.1928 14.764600  9.456340 10.077800
281  2 -0.3810  1.104690  6.653950 24.744200
282  2 -0.0966 -1.232120  7.065720 21.861700
283  2  0.0715 14.575200  4.354850  4.616570
284  2 -0.6133 15.235900 16.613300 16.196900
285  2 -0.2225 11.881100  1.883230  7.754020
286  2 -0.2445 18.581000  4.001550  7.927210
287  2 -0.2162  9.952740 18.253700  3.884250
288  2 -0.5445 10.735800 15.832800 21.013600
289  2 -0.5514 15.464600 17.467100 11.316200
290  2 -0.3960  4.885120 14.184600 23.931800
291  2 -0.5684 14.931600 11.359600 14.800600
292  2 -0.4284 19.879900 10.150700 24.668100
293  2 -0.3052  9.455500  5.312260  7.537240
294  2 -0.4016 -1.931360  3.672530 16.333700
295  2 -0.0910 16.840000 16.937800  2.310540
296  2 -0.3119  2.354580  9.485250 16.906200
297  2 -0.6863  1.639230 12.762000  2.040910
298  2 -0.7469 -0.890284 17.061100 19.818300
299  2 -0.5840 18.070700 17.544500  8.025370
300  2 -0.4945  5.084460  9.355820 11.886500
301  2 -0.0110 12.446200  7.180610  5.968630
302  2 -0.5307 12.632300  9.257040 19.139600
303  2 -0.0790 15.389500 16.085800  5.321340
304  2 -0.7573 12.769400 11.143900 21.874800
305  2 -0.5550  8.255620 16.529700 18.054400
306  2 -0.6664  1.753080  9.016600  0.535008
307  2 -0.6592 -0.341828 11.548200 12.853000
308  2 -0.6064  3.236140 15.428000  4.518210
309  2 -0.7833 18.990400  3.045840 22.158800
310  2 -0.5437 11.271500 13.097800  8.948100
311  2 -0.3544 19.097700  8.455470  4.328080
312  2 -0.1490 21.897000 14.163700 23.590800
313  2  0.0087 -1.205320 10.328400 20.169600
314  2 -0.6307  0.163224  7.103930  2.773200
315  2 -0.4111  5.979360  2.901970 13.506500
316  2 -0.6879 -1.579570  5.422440 27.028000
317  2 -0.3606 20.752200  6.992300 14.369100
318  2 -0.1654 15.953600  5.250820  1.144880
319  2  0.0051 17.319600  2.480290  5.128860
320  2 -0.5127 21.635000  2.107700  6.929770

