Generated by pymatgen.io.lammps.data.LammpsData

360  atoms

  2  atom types

0.000000 16.871067  xlo xhi
0.000000 22.058404  ylo yhi
0.000000 29.928687  zlo zhi

Masses

1  208.9804
2   78.9600

Atoms

1    1  0.7525  2.631860 14.074900 22.443300
2    1  0.8213  4.765390 17.481500 22.280100
3    1  0.7191  2.370930  6.667130 22.242600
4    1  0.8025  4.713260 10.198200 22.415200
5    1  0.7346  7.208730 14.181600 21.678300
6    1  0.7789  8.733550 17.692500 22.188800
7    1  0.8599  2.594430 21.270600 22.627600
8    1  0.7774  4.122460  2.432050 22.246400
9    1  0.8063  6.815690  6.349010 22.330900
10   1  0.7345  9.706660 10.683800 22.176400
11   1  0.6190 11.504300 13.946300 21.923200
12   1  0.6995 12.657800 17.520900 22.300900
13   1  0.7697  6.926250 21.413700 22.471700
14   1  0.7074  8.347850  2.768040 23.002300
15   1  0.8019 10.545100  6.891950 22.657300
16   1  0.8242 13.241800  9.970000 22.628300
17   1  0.7055 15.804700 14.110200 22.467800
18   1  0.7609  0.354303 17.739900 22.679000
19   1  0.7487 11.559700 21.156600 22.718500
20   1  0.6590 13.606600  3.283060 22.729700
21   1  0.6882 15.664800  6.609230 22.579800
22   1  0.6948  1.002950 10.199000 22.385300
23   1  0.7269 15.534700 21.368400 22.426500
24   1  0.6306 -0.210640  2.942330 22.616400
25   1  0.6976  2.441320 13.488500 29.307500
26   1  0.6740  4.639560 16.716600 28.802100
27   1  0.7298  2.516460  6.264110 29.049000
28   1  0.6918  5.306550  9.852360 28.715800
29   1  0.7566  7.407680 13.912600 29.073100
30   1  0.7708  9.180720 17.541100 28.462900
31   1  0.8012  2.776420 20.458700 28.494700
32   1  0.8055  4.664750  2.397350 28.765400
33   1  0.7660  6.577470  6.338970 28.101300
34   1  0.7763  9.250360 10.208200 28.945100
35   1  0.8554 11.602600 13.259400 29.303200
36   1  0.7514 13.588200 17.114100 28.867600
37   1  0.8370  6.965270 20.841100 28.151600
38   1  0.8103  8.858570  2.796760 28.259800
39   1  0.7477 10.855000  6.024810 28.487500
40   1  0.7431 13.150600  9.237680 28.813900
41   1  0.8122 15.395100 13.394900 29.124000
42   1  0.7701  0.523473 16.878500 28.884700
43   1  0.7649 11.170800 21.301000 28.598100
44   1  0.8824 13.327500  2.291860 28.459900
45   1  0.7318 15.333700  5.842210 29.263100
46   1  0.7332  0.348890  9.763840 28.593000
47   1  0.7264 15.522900 20.780200 28.586100
48   1  0.7414  0.355163  2.173920 28.633100
49   1  0.8389  2.592340 15.341000  4.080180
50   1  0.7775  5.377380 19.675600  2.462440
51   1  0.8067  2.918870  8.618580  2.633770
52   1  0.6853  4.788770 12.083300  2.343450
53   1  0.7786  7.292200 15.570900  2.709030
54   1  0.8026  8.876630 19.674900  1.974450
55   1  0.7702  2.612100  0.890930  1.849580
56   1  0.7148  4.513980  4.943540  2.346210
57   1  0.7680  7.139340  8.400650  2.206480
58   1  0.7761  8.907590 12.236300  2.848160
59   1  0.7535 11.784400 16.050100  2.014440
60   1  0.7535 13.193800 19.940000  2.911110
61   1  0.7433  6.573770  1.775390  2.072770
62   1  0.7811  8.697360  4.865640  2.491770
63   1  0.8045 10.943200  8.844700  2.412180
64   1  0.8113 12.934400 12.631200  2.388910
65   1  0.7957 15.237800 15.605700  2.598340
66   1  0.8300  0.612529 19.784800  2.569750
67   1  0.8096 10.746600  1.431030  1.849660
68   1  0.8537 13.484700  4.768310  2.888640
69   1  0.7658 14.824000  8.955780  2.580850
70   1  0.7329  0.294680 11.839200  2.562400
71   1  0.7032 15.441700  0.599978  1.708540
72   1  0.7653  0.514408  4.799050  2.698450
73   1  0.8353  2.685900 16.043300  8.661440
74   1  0.7517  4.344500 19.435400  8.758600
75   1  0.7364  2.553240  8.641310  9.124890
76   1  0.9322  4.999630 12.329200  8.353100
77   1  0.8317  6.536530 15.701800  9.413290
78   1  0.7480  8.389050 19.069300  8.653230
79   1  0.7260  2.258660  1.479280  8.501380
80   1  0.8345  4.720780  5.060290  8.038560
81   1  0.7290  6.922980  8.430410  8.392230
82   1  0.7607  9.179290 12.111400  9.037050
83   1  0.8057 10.962400 15.721200  8.622100
84   1  0.8130 12.592600 19.568800  8.599140
85   1  0.8378  6.930850  0.954800  8.070850
86   1  0.7983  9.040520  4.887360  8.293180
87   1  0.6986 10.745500  8.666350  8.480740
88   1  0.8584 12.926400 12.443800  8.849200
89   1  0.7441 14.828900 16.008300  9.001260
90   1  0.8696 17.069800 19.521600  8.475260
91   1  0.7475 10.693000  1.134220  8.401920
92   1  0.7273 12.887100  5.233970  8.680060
93   1  0.7726 14.711000  8.707170  8.938630
94   1  0.7939  0.598536 12.437900  7.960080
95   1  0.8472 15.162100  1.022210  7.939790
96   1  0.7739  0.577310  5.030630  8.257980
97   1  0.6743  0.453478 14.571300 11.498200
98   1  0.8097  2.532840 18.111700 12.543200
99   1  0.7354  0.599782  7.417360 11.931300
100  1  0.7140  2.712220 10.672600 12.572600
101  1  0.8312  4.331000 14.293300 12.172600
102  1  0.7614  6.687280 18.314300 12.588700
103  1  0.7608  0.001389  0.227796 11.912600
104  1  0.7352  2.203690  3.457060 11.698100
105  1  0.7278  4.515010  7.433460 11.964500
106  1  0.8116  6.944960 10.928600 12.131700
107  1  0.8302  9.372510 14.802900 12.187000
108  1  0.8137 10.566700 18.503300 12.056000
109  1  0.7552  4.608060  0.498432 12.130200
110  1  0.8450  6.456600  0.935893 15.471300
111  1  0.8261  8.708250  7.190150 12.022900
112  1  0.7949 10.688900 11.253300 12.244700
113  1  0.7598 13.287200 15.054500 12.249500
114  1  0.7079 15.107800 18.484200 12.014200
115  1  0.7714  9.062560 -0.062679 11.716600
116  1  0.6908 11.201900  2.949190 12.576300
117  1  0.7739 13.007100  7.696160 12.015200
118  1  0.8051 14.656400 11.018000 12.430400
119  1  0.6882 13.101700 -0.324120 12.116200
120  1  0.7708 14.748400  4.187750 11.846000
121  1  0.8348  0.540778 15.136500 18.867900
122  1  0.7710  2.641250 18.856700 18.963400
123  1  0.7650  0.393221  8.020050 18.240400
124  1  0.8083  2.563930 11.555000 18.631900
125  1  0.7766  4.592670 15.354100 18.579000
126  1  0.8529  6.310310 18.804300 18.811700
127  1  0.7870  0.500088  0.395176 18.988700
128  1  0.6549  2.710570  3.976430 18.953600
129  1  0.7957  4.480180  7.697290 18.762900
130  1  0.8448  6.240850 11.531000 18.322100
131  1  0.7815  8.418420 15.331900 17.783900
132  1  0.7638 10.333400 19.157800 18.636100
133  1  0.6528  4.438870  0.738231 19.126500
134  1  0.5683  6.900690  3.927130 18.841700
135  1  0.7144  8.470450  7.694370 17.823100
136  1  0.6774  9.722200 10.855000 18.311800
137  1  0.7304 12.749000 15.121700 18.388800
138  1  0.7520 15.421400 19.045400 19.530700
139  1  0.6533  8.397250  0.525835 19.569300
140  1  0.8031 10.445000  3.857790 18.625900
141  1  0.7628 13.432800  8.067430 18.699800
142  1  0.6862 14.110300 11.753900 17.817200
143  1  0.8149 12.966200 -0.427735 18.709000
144  1  0.7169 14.676800  4.054200 19.086300
145  2 -0.8727  0.200668 14.695100  0.640775
146  2 -0.5920  2.870470 17.971100  1.644680
147  2 -0.7992  0.720150  7.427640  1.033460
148  2 -0.8064  2.518740 10.569400  0.030042
149  2 -0.8136  5.089640 14.654600  1.318840
150  2 -0.8110  7.052880 18.365300  0.242047
151  2 -0.9167  0.862177 21.392600  0.367391
152  2 -0.8306  2.485930  3.522840  0.649847
153  2 -0.8672  5.044650  7.152930  0.258248
154  2 -0.8967  7.515010 11.392200  0.727306
155  2 -0.8041  9.619220 14.783900  0.503816
156  2 -0.8183 11.162300 18.704200  0.816831
157  2 -0.8160  4.829040 21.971200  0.286182
158  2 -0.8274  6.947000  3.766920  0.013272
159  2 -0.8114  9.027830  6.985100  0.834101
160  2 -0.8860 11.209800 11.023400  0.974109
161  2 -0.9838 13.402100 14.946600  0.416248
162  2 -0.8025 15.437300 18.587800  0.923545
163  2 -0.7846  8.589850  0.054333  0.181261
164  2 -0.6582 11.740300  3.676880  0.219257
165  2 -0.8275 13.004300  7.375560  0.813955
166  2 -0.8740 14.818100 11.319100  1.121060
167  2 -0.8588 12.919300  0.607702  0.306830
168  2 -0.7677 15.122500  3.604520  0.761087
169  2 -0.3291  2.493250 15.926900 27.010500
170  2 -0.3022  5.314500 19.577800 26.503400
171  2 -0.2176  3.097260  8.449200 26.328900
172  2 -0.2498  5.163530 13.044800 27.036100
173  2 -0.3252  7.020990 16.619300 26.964600
174  2 -0.3650  9.261140 20.231700 26.750800
175  2 -0.3806  2.921690  0.825054 27.306500
176  2 -0.2668  3.884440  4.890140 26.854100
177  2 -0.3399  6.901620  9.431820 26.719300
178  2 -0.3765  9.656810 12.632300 27.781400
179  2 -0.2450 11.361500 15.918200 26.961600
180  2 -0.3384 13.367200 19.316600 26.813500
181  2 -0.3853  6.695510  1.410700 26.980700
182  2 -0.4897  8.632240  5.211160 26.706500
183  2 -0.3403 10.677800  9.541410 26.880300
184  2 -0.3299 13.103200 11.773600 27.381000
185  2 -0.2556 15.572800 15.542200 26.888700
186  2 -0.4754  0.764301 19.188800 27.437300
187  2 -0.4632 11.269800  1.624400 27.126700
188  2 -0.2895 12.698100  5.067980 26.754200
189  2 -0.4011 14.809800  8.467030 27.050500
190  2 -0.3897  0.889183 12.587900 27.428200
191  2 -0.4037 15.566500  0.729245 26.769700
192  2 -0.4250  0.138472  4.591590 27.515800
193  2 -0.3676  0.815043 15.023500 24.310800
194  2 -0.4340  2.420000 18.815300 23.833400
195  2 -0.3720  0.278257  7.880480 24.526700
196  2 -0.2959  3.069110 11.471700 24.615300
197  2 -0.3092  5.388820 15.038800 23.889000
198  2 -0.3414  6.965630 18.229900 23.969600
199  2 -0.3370  0.751162  0.211913 24.367800
200  2 -0.3323  2.183740  3.586500 24.030100
201  2 -0.3542  4.869420  7.591570 23.890200
202  2 -0.2936  7.126760 11.509000 23.526600
203  2 -0.2757  9.123090 14.665000 24.018000
204  2 -0.4386 10.652000 18.762200 23.932200
205  2 -0.3291  4.816590  0.129934 24.293300
206  2 -0.3439  6.273100  4.116550 24.354300
207  2 -0.4082  8.563870  8.381320 23.706600
208  2 -0.2526 11.275800 11.767200 24.350900
209  2 -0.2838 13.371300 14.874400 24.318600
210  2 -0.3223 15.372400 18.053000 24.394000
211  2 -0.3819  9.103290  0.504143 24.437100
212  2 -0.3100 11.101900  4.078370 24.504200
213  2 -0.4436 13.656700  7.451290 23.919100
214  2 -0.3193 15.834300 11.762700 24.222400
215  2 -0.3909 13.514300  0.154316 24.302600
216  2 -0.3491 15.025800  4.274180 24.835400
217  2 -0.7685  2.790780 13.348200  9.899460
218  2 -0.8437  4.238140 16.704600 10.802500
219  2 -0.9019  2.570300  6.387040 10.212300
220  2 -0.8137  4.774570 10.268300  9.943850
221  2 -0.7902  6.536570 13.370500 10.354800
222  2 -0.8823  8.754970 16.820000 10.505100
223  2 -0.7415  2.217260 20.591500 10.382600
224  2 -0.6616  4.337790  3.194670  9.978470
225  2 -0.7132  6.811850  6.009800  9.561430
226  2 -0.9329  8.720040  9.486080 10.649300
227  2 -0.9374 10.838700 13.451100 10.282400
228  2 -0.8763 12.496300 17.339700 10.557400
229  2 -0.7853  6.096920 21.203700 10.262000
230  2 -0.7362  8.703650  1.875630 10.094400
231  2 -0.8318 10.806200  6.165590 10.268100
232  2 -0.8609 12.663000 10.197100 10.379500
233  2 -0.8504 14.885200 13.626900 10.383700
234  2 -0.8303  0.548237 17.276700  9.988000
235  2 -0.9540 10.612500 20.403300 10.403800
236  2 -0.7709 12.921400  2.399600  9.622440
237  2 -0.8642 15.303500  6.289310 10.325200
238  2 -0.7761 -0.010640 10.025600 10.727700
239  2 -0.8742 15.079600 20.701800 10.448400
240  2 -0.8414 -0.043823  2.514310  9.974170
241  2 -0.4955  0.144271 15.061600  7.445560
242  2 -0.3600  2.237460 18.612600  6.857000
243  2 -0.3042  0.485979  7.495000  6.939810
244  2 -0.2551  2.798580 10.296800  6.901930
245  2 -0.5017  4.694280 14.887300  7.492130
246  2 -0.3983  6.502600 18.049100  7.136280
247  2 -0.4156  0.427938 -0.023778  6.862270
248  2 -0.4117  2.328620  4.000300  6.565460
249  2 -0.2542  4.603750  8.052190  6.570400
250  2 -0.3264  7.054480 11.005200  6.754520
251  2 -0.3209  8.581790 14.963000  7.198240
252  2 -0.3268 10.785200 18.494600  6.884710
253  2 -0.3413  4.690190 21.896000  6.842950
254  2 -0.3652  7.006720  3.727200  6.535110
255  2 -0.2331  8.677940  6.950630  5.779430
256  2 -0.4354 11.130700 11.394800  7.161100
257  2 -0.2994 12.919300 14.949100  6.709760
258  2 -0.3937 14.890200 18.472700  7.134600
259  2 -0.3200  8.664950 21.319900  6.538280
260  2 -0.4094 10.889500  4.157490  6.654110
261  2 -0.4301 13.105200  8.215600  7.012260
262  2 -0.2679 15.077400 11.402100  6.799590
263  2 -0.3801 12.933600 21.609900  6.745080
264  2 -0.3159 14.675200  3.655840  6.726950
265  2 -0.4348  2.728710 12.903100  4.746910
266  2 -0.3216  5.003940 16.825900  4.180430
267  2 -0.3531  2.553200  6.562410  4.193710
268  2 -0.3941  4.582870 10.242700  4.026740
269  2 -0.2601  6.489970 13.482100  4.818300
270  2 -0.3338  9.011310 17.637700  3.812800
271  2 -0.3090  2.983170 21.091200  4.007620
272  2 -0.3646  4.327260  2.942140  4.124760
273  2 -0.3955  6.752160  6.312290  4.047250
274  2 -0.4469  8.579650  9.408370  3.952980
275  2 -0.4081 10.694500 13.954600  4.074280
276  2 -0.3179 13.294100 17.078800  4.368370
277  2 -0.3029  6.757360 21.643100  4.002010
278  2 -0.4723  8.539470  2.040300  3.553000
279  2 -0.3532 11.280900  5.772660  4.032140
280  2 -0.3100 13.151100 10.315900  4.237460
281  2 -0.4364 15.200100 13.187600  4.024680
282  2 -0.3885  0.439836 16.910400  4.121690
283  2 -0.3482 10.606400 21.307100  3.695510
284  2 -0.3689 13.633900  2.073770  3.313250
285  2 -0.3264 15.372600  6.150880  4.548610
286  2 -0.3908  0.719263  9.878030  4.027160
287  2 -0.3188 15.460400 21.051300  4.438080
288  2 -0.4064  0.443923  1.858470  3.525510
289  2 -0.8800  2.660900 16.158300 20.638300
290  2 -0.7838  4.659950 20.014100 20.861300
291  2 -0.8302  2.661240  8.912620 20.577500
292  2 -0.7974  4.481640 12.744600 20.329600
293  2 -0.8867  6.686640 16.525500 20.272200
294  2 -0.8595  8.286170 19.873500 20.779300
295  2 -0.8965  1.884830  1.776150 20.989300
296  2 -0.8153  4.850130  5.487350 20.697100
297  2 -0.6948  6.540770  9.345690 20.443100
298  2 -0.8385  8.163920 12.921100 19.363600
299  2 -0.8609 11.036800 16.325000 19.972900
300  2 -0.8859 13.188100 19.977600 20.805600
301  2 -0.9987  6.437960  1.927220 20.991800
302  2 -0.7605  9.010820  5.777610 20.446100
303  2 -0.7579 11.147700  8.928260 20.841500
304  2 -0.8058 12.812300 11.805900 20.961500
305  2 -0.8082 15.251000 16.612100 20.371300
306  2 -0.8965  0.932816 20.217500 20.809700
307  2 -0.6605 11.575400  2.220350 20.387200
308  2 -0.6577 12.718900  5.462030 20.278300
309  2 -0.7274 15.767200  9.270940 20.033800
310  2 -0.7840  0.537595 12.887000 20.182700
311  2 -0.8307 14.926000  1.082020 20.294000
312  2 -0.8480  0.318671  5.833210 20.209500
313  2 -0.3789  2.505410 14.300600 17.040100
314  2 -0.3913  4.537980 18.066600 16.999800
315  2 -0.2222  2.421730  6.031090 16.496900
316  2 -0.4780  4.258540  9.884320 17.267900
317  2 -0.3050  6.058640 14.313100 16.384800
318  2 -0.3742  8.573740 18.012800 16.653100
319  2 -0.3859  2.654650 21.265900 17.372600
320  2 -0.4326  4.304320  2.489320 16.420000
321  2 -0.3462  5.938010  7.161890 16.524300
322  2 -0.3559  7.913140 10.141300 16.267400
323  2 -0.3508 10.168000 13.038000 16.475300
324  2 -0.3023 12.858300 18.438500 17.370300
325  2 -0.5761  6.321310 21.149700 17.633500
326  2 -0.4908  8.658140  2.199130 16.949600
327  2 -0.2751 10.247200  5.992140 16.426700
328  2 -0.4311 12.148600  9.562000 16.702000
329  2 -0.3689 14.800300 14.241200 16.820700
330  2 -0.2998  0.018671 17.496000 17.320000
331  2 -0.4404 10.561100 21.907700 17.706100
332  2 -0.1565 12.675700  2.926390 16.366700
333  2 -0.3070 14.381800  6.194200 16.961000
334  2 -0.2918  0.374637 11.007800 16.153400
335  2 -0.2181 15.457500 20.742700 16.724200
336  2 -0.2513  0.742881  2.317780 16.944600
337  2 -0.2260  3.755940 16.402800 14.488600
338  2 -0.4695  4.641180 19.717000 13.471900
339  2 -0.4161  2.692980  8.183100 13.964200
340  2 -0.4434  4.775310 11.993000 13.625800
341  2 -0.3905  6.814720 15.747700 13.482000
342  2 -0.4271  8.455360 20.466400 13.890700
343  2 -0.3090  1.770810  1.337440 13.810900
344  2 -0.1500  5.213840  5.303550 14.062800
345  2 -0.3536  6.512890  8.774590 13.780700
346  2 -0.3387  8.545490 12.794500 13.866500
347  2 -0.4218 11.115700 16.045800 13.867600
348  2 -0.3355 12.726300 19.864500 14.032400
349  2 -0.3885  6.631150  2.176460 12.751800
350  2 -0.1850  9.202380  4.441350 14.388600
351  2 -0.4030 11.002000  8.031480 13.577900
352  2 -0.5053 12.597200 12.592700 13.554000
353  2 -0.3502 15.382700 16.556800 13.964800
354  2 -0.2703  0.855588 20.212300 13.951600
355  2 -0.3324 10.635000  0.670203 14.230500
356  2 -0.3436 13.337100  5.159490 13.763400
357  2 -0.4630 15.103300  8.686980 13.665500
358  2 -0.3612 17.439200 13.373900 13.790200
359  2 -0.4245 14.836600  1.888740 13.430000
360  2 -0.2938  0.752540  4.609050 13.652400

