Generated by pymatgen.io.lammps.data.LammpsData

216  atoms

  2  atom types

0.000000 18.096178  xlo xhi
0.000000 18.140645  ylo yhi
0.000000 18.233787  zlo zhi

Masses

1  208.9804
2   78.9600

Atoms

1    1  0.7032  0.854619  0.383445 18.117700
2    1  0.7547  0.594048 17.759300  6.045220
3    1  0.7254  0.573788 17.752500 11.926900
4    1  0.8017 17.818100  6.004150 -0.139990
5    1  0.7584  0.606573  5.826210  6.373950
6    1  0.7928  0.611214  6.588960 12.238800
7    1  0.7278 -0.199346 11.892200 17.994200
8    1  0.7908 17.916300 12.084300  5.841670
9    1  0.8756  0.184583 11.989000 12.327900
10   1  0.7490  6.509110 17.811600  0.155598
11   1  0.8159  7.133400  0.320892  6.553480
12   1  0.7364  6.858390  0.034542 12.176200
13   1  0.7245  6.876710  5.468360  1.120850
14   1  0.8470  6.819440  5.837870  6.667010
15   1  0.7381  5.999750  6.463050 11.998100
16   1  0.7584  6.383160 11.456400  0.071941
17   1  0.6930  6.332390 11.926500  6.527630
18   1  0.8806  6.056470 11.741900 12.399100
19   1  0.8083 12.963500 -0.295433 18.485400
20   1  0.9084 12.211700 -0.128391  6.126070
21   1  0.7860 12.277900 18.044200 12.418000
22   1  0.7459 12.540400  5.938310  0.292417
23   1  0.6311 12.381400  6.019400  6.818590
24   1  0.8286 13.292400  5.679130 12.366300
25   1  0.8711 12.136100 12.289400  0.486680
26   1  0.6662 12.116900 12.570400  6.910910
27   1  0.7596 12.369000 11.628400 12.835300
28   1  0.7578  0.228220  2.625610  2.996730
29   1  0.8420  0.259225  2.989630  8.968710
30   1  0.8714  0.301371  2.804080 15.163000
31   1  0.7943  0.493563  8.927360  3.284130
32   1  0.7879  0.674540  8.832460  9.375710
33   1  0.7788  0.226369  8.997310 15.630300
34   1  0.6320 17.851300 14.981100  2.189010
35   1  0.7041  0.551740 14.745400  8.993450
36   1  0.8338  0.756516 14.793100 14.917500
37   1  0.7117  6.390830  2.399550  3.576220
38   1  0.7566  6.560700  2.658930 10.030100
39   1  0.8866  5.965660  2.700540 15.147600
40   1  0.7829  6.603740  8.432620  3.614230
41   1  0.8123  6.629300  9.212840  9.402490
42   1  0.6559  6.356720  8.307730 15.659600
43   1  0.8945  6.752850 15.070000  2.946000
44   1  0.8229  6.471970 15.284000  8.954620
45   1  0.8199  6.264430 14.482100 15.285800
46   1  0.8343 12.283000  2.832360  2.611830
47   1  0.6639 12.371800  3.500270  9.510600
48   1  0.7198 12.162300  2.799700 14.986800
49   1  0.7326 12.664900  8.543200  3.180250
50   1  0.6961 12.165000  9.043590  9.173980
51   1  0.8512 12.629000  8.494480 15.485600
52   1  0.8507 12.342700 15.257500  3.099270
53   1  0.7626 12.028000 14.779300  9.534500
54   1  0.7607 11.987500 15.198700 14.878100
55   1  0.8809  3.598320 17.616900  3.285680
56   1  0.7070  3.128480 -0.050900  8.859540
57   1  0.8141  3.692140 17.479800 15.474300
58   1  0.6559  3.061720  5.257370  3.025390
59   1  0.7418  3.524180  5.989250  8.898480
60   1  0.6982  3.679750  5.807980 15.327600
61   1  0.7689  3.179620 11.970100  3.436620
62   1  0.8236  3.390610 12.255200  9.507180
63   1  0.8196  3.537790 11.956500 15.396800
64   1  0.7823  9.399710 -0.158967  3.197680
65   1  0.8097  9.828230  0.069015  9.585920
66   1  0.7429  9.206290  0.226964 15.022100
67   1  0.6902  9.906850  6.487280  3.392880
68   1  0.8142  9.933110  5.564790  9.147570
69   1  0.8185  9.342660  5.544680 15.911500
70   1  0.7820 10.090700 12.071300  4.080630
71   1  0.7082  9.793530 11.870800  9.440110
72   1  0.8728  9.386160 11.679800 15.244300
73   1  0.7397 15.014100 17.485500  2.780470
74   1  0.7799 14.880000  0.275803  9.572480
75   1  0.8789 15.342000 17.501200 15.112200
76   1  0.8323 15.476700  5.636430  2.782170
77   1  0.8188 15.417500  6.539490  8.789950
78   1  0.7036 15.027800  5.557180 15.764400
79   1  0.8104 15.403800 12.096500  3.432220
80   1  0.7396 15.189100 12.033200  8.951720
81   1  0.7198 15.683000 11.917300 15.928500
82   1  0.7262  3.727540  3.054850  0.655335
83   1  0.6826  3.923440  3.208590  5.889310
84   1  0.8038  3.147890  3.246560 11.736600
85   1  0.8273  3.513510  9.422560 18.462800
86   1  0.7590  4.224280  9.552740  5.575180
87   1  0.7706  3.164140  8.939520 12.259500
88   1  0.7710  3.543000 15.023600 18.410700
89   1  0.8454  3.620500 14.578800  5.997890
90   1  0.6469  2.980850 15.249700 11.559200
91   1  0.8580  8.959620  2.928570  0.321772
92   1  0.6637 10.502600  3.144460  6.658820
93   1  0.7545  8.981300  3.440330 12.905500
94   1  0.8133  9.103390  8.720180  0.491753
95   1  0.7874  9.685530  8.952150  6.566780
96   1  0.7811  9.510240  9.187200 12.049100
97   1  0.7455  9.343510 15.015700 18.398900
98   1  0.8238  9.447360 14.927400  6.165080
99   1  0.7757  9.139040 15.801700 12.142800
100  1  0.7548 15.460500  2.952300  0.105769
101  1  0.8656 15.708600  3.049790  5.450980
102  1  0.6658 15.363600  2.982220 13.080100
103  1  0.8303 15.671200  9.457110  0.539079
104  1  0.7130 15.233900  8.997210  6.437470
105  1  0.8219 15.057200  8.876920 12.699900
106  1  0.7552 15.110100 14.865800 18.296300
107  1  0.7964 15.384000 15.005000  6.520780
108  1  0.7307 15.259800 14.620900 12.116600
109  2 -0.7816  3.650860 18.379600 -0.246298
110  2 -0.6846  3.584290 -0.673299  6.071700
111  2 -0.7502  3.296580  0.317506 11.790500
112  2 -0.6031  3.058200  6.219440  0.089198
113  2 -0.7240  3.530140  6.601260  6.087030
114  2 -0.9280  3.389430  6.364100 12.295400
115  2 -0.7628  3.461360 12.288300 18.284700
116  2 -0.7872  2.890120 11.906100  6.230970
117  2 -0.7666  3.317540 11.898900 12.195800
118  2 -0.7580  9.184740  0.175928 18.546000
119  2 -0.8117  9.777260 17.891800  6.546970
120  2 -0.9615  9.499630  0.320942 12.210500
121  2 -0.8592  9.473330  5.848440  0.317346
122  2 -0.8658  9.547120  6.019880  6.679730
123  2 -0.6335 10.091600  5.668830 12.019400
124  2 -0.6428  9.181420 11.816900  0.051026
125  2 -0.8795  9.103480 12.200600  6.641600
126  2 -0.6737  9.369340 12.023100 12.464200
127  2 -0.8000 15.360500 17.715700 18.067000
128  2 -0.6118 15.065700 18.137500  6.078590
129  2 -0.7953 14.866200 17.821800 12.343000
130  2 -0.8550 15.146000  6.685030  0.375210
131  2 -0.7532 15.793000  5.760910  5.802870
132  2 -0.7467 15.640400  6.012180 12.674700
133  2 -0.8958 15.068200 12.008800  0.512393
134  2 -0.8610 15.075500 12.179400  6.234370
135  2 -0.7692 15.424700 11.604700 12.821800
136  2 -0.8714  3.256830  2.179570  3.360660
137  2 -0.8021  3.287440  3.245700  8.983170
138  2 -0.6101  2.855420  2.384100 15.320100
139  2 -0.7828  3.755960  9.289150  2.936630
140  2 -0.7270  3.813020  9.273470  9.249090
141  2 -0.7617  2.979550  9.269410 15.548400
142  2 -0.7418  3.857650 14.963600  2.909610
143  2 -0.8698  3.849760 14.766000  8.662670
144  2 -0.8449  3.530540 15.008000 15.211500
145  2 -0.7358  9.185090  3.301220  3.108320
146  2 -0.8305  9.721650  2.803550  9.338170
147  2 -0.7635  8.717490  3.051550 15.826500
148  2 -0.7651  9.166790  9.376710  3.437090
149  2 -0.8184  9.377650  8.398140  9.400210
150  2 -0.7089  9.313500  8.993040 15.928600
151  2 -0.8291  9.819590 15.147900  3.119010
152  2 -0.7513  9.256120 14.901000  9.429970
153  2 -0.7121  9.198420 14.441900 15.056000
154  2 -0.8655 15.693700  2.864230  2.844810
155  2 -0.6565 15.793600  3.500590  9.615580
156  2 -0.7972 15.706000  2.241290 15.926300
157  2 -0.7499 15.885600  8.886210  3.135070
158  2 -0.7931 15.166900  9.104420  9.220050
159  2 -0.7661 15.249700  8.588320 15.922300
160  2 -0.8736 14.931500 15.179300  3.526050
161  2 -0.7412 15.295500 15.320200  9.206670
162  2 -0.7192 15.756700 15.054300 15.511100
163  2 -0.7414  0.995297 17.775200  3.162750
164  2 -0.7852 18.447700  0.364373  9.106720
165  2 -0.6617  0.084613 -0.203483 14.704500
166  2 -0.7419 18.459000  5.424370  2.517670
167  2 -0.8110  0.167074  6.447760  8.908120
168  2 -0.6936 -0.149176  5.851950 15.154400
169  2 -0.7993  0.251950 12.032900  3.048800
170  2 -0.7576  0.612790 12.266100  9.645110
171  2 -0.8210  0.313069 12.050400 15.531000
172  2 -0.8346  6.621320 18.033600  3.373840
173  2 -0.8331  6.855080 -0.086459  9.515260
174  2 -0.8198  6.399440 18.159200 15.199500
175  2 -0.8032  6.335670  5.796300  3.794390
176  2 -0.7394  6.371060  6.186670  9.507320
177  2 -0.7503  6.576870  5.487580 15.588800
178  2 -0.6286  6.780940 12.377300  3.428150
179  2 -0.6816  6.598210 12.616100  9.819070
180  2 -0.8023  6.298820 11.829700 15.324600
181  2 -0.8455 12.264400 -0.096430  2.899580
182  2 -0.7500 12.632200 17.797300  8.678380
183  2 -0.8399 12.111600 -0.081880 14.943200
184  2 -0.8138 12.605400  5.652690  3.281410
185  2 -0.8847 13.021400  6.168490  9.631230
186  2 -0.8635 12.397000  5.688260 15.685500
187  2 -0.7275 12.717400 12.201500  3.287070
188  2 -0.9171 12.591100 11.843700  9.767980
189  2 -0.6883 12.304400 11.948200 15.661600
190  2 -0.7317  0.574479  3.251310 -0.404267
191  2 -0.7673  0.328015  2.901720  6.082830
192  2 -0.6505  0.317692  3.493300 12.151100
193  2 -0.7442  0.508452  9.043280  0.413625
194  2 -0.6577 18.499900  9.173790  6.427390
195  2 -0.8107  0.672629  9.373950 12.523100
196  2 -0.7144  0.350962 14.932300 17.595600
197  2 -0.7484 18.551800 14.700000  5.986300
198  2 -0.8356  0.113597 14.761800 11.871000
199  2 -0.7467  6.356450  2.797170 18.035900
200  2 -0.7791  6.634060  2.796940  6.544700
201  2 -0.8497  5.893240  3.190470 12.482400
202  2 -0.7920  6.354910  8.340290 18.708400
203  2 -0.8000  6.755440  8.995500  6.478970
204  2 -0.8498  6.927290  9.282210 12.189500
205  2 -0.8138  6.606480 14.756800 18.637400
206  2 -0.6936  6.467710 15.219200  5.625660
207  2 -0.6473  5.988670 14.791400 12.693300
208  2 -0.7842 12.635700  2.628410 18.296000
209  2 -0.7384 13.063400  2.910040  5.497650
210  2 -0.8004 12.002900  3.102700 12.332500
211  2 -0.6526 12.086700  9.352150  0.343264
212  2 -0.8670 12.165300  9.031360  5.997930
213  2 -0.8198 12.617700  8.727060 13.034600
214  2 -0.8491 12.477000 14.974900 18.279200
215  2 -0.7768 11.961800 15.269900  6.285200
216  2 -0.8113 11.802400 15.005100 12.267400

