Generated by pymatgen.io.lammps.data.LammpsData

216  atoms

  2  atom types

0.000000 18.096178  xlo xhi
0.000000 18.140645  ylo yhi
0.000000 18.233787  zlo zhi

Masses

1  208.9804
2   78.9600

Atoms

1    1  0.8222  0.958203  0.348113  0.003508
2    1  0.7558 17.716300 17.602900  5.762480
3    1  0.7701  0.319011  0.419811 12.123700
4    1  0.7912  0.342748  5.787280  0.057028
5    1  0.8082  0.420178  5.833710  6.598770
6    1  0.7098 17.523500  6.248650 12.423000
7    1  0.8221 -0.072045 12.118400 -0.105260
8    1  0.7462  0.039492 11.885500  6.044430
9    1  0.8821  0.829548 12.130600 12.733200
10   1  0.8160  6.656290 18.123400 18.219500
11   1  0.7022  5.887850 18.207900  6.278410
12   1  0.6931  6.776720  0.227630 12.837700
13   1  0.6882  6.697280  5.569550  0.181109
14   1  0.7358  6.637990  5.854560  6.848930
15   1  0.7879  6.498860  5.815040 12.915800
16   1  0.6714  6.444100 11.079400  0.381133
17   1  0.6869  6.282200 11.839100  6.151860
18   1  0.7210  6.315830 12.162000 12.312600
19   1  0.7527 12.396200 17.927400  0.553808
20   1  0.7230 12.096600 18.179700  6.312040
21   1  0.7739 12.413800 17.930000 12.367700
22   1  0.8115 12.959300  6.075700  0.470911
23   1  0.8003 12.521200  6.338710  5.832390
24   1  0.7609 12.315700  6.251910 12.515300
25   1  0.9097 12.860500 12.154500  0.067887
26   1  0.7636 12.267500 11.850100  6.188650
27   1  0.7419 11.699200 11.610800 12.223600
28   1  0.7780  0.129998  2.586020  2.867650
29   1  0.7744  0.377918  3.367250  9.078300
30   1  0.8768  0.425952  3.026130 15.054500
31   1  0.7037  0.885548  9.171030  2.974950
32   1  0.8415  0.335396  9.104840  9.448560
33   1  0.7441  0.304308  9.111020 15.459200
34   1  0.7685  0.120440 15.122100  2.741150
35   1  0.8485 18.114000 15.262200  9.449620
36   1  0.8598 17.998400 15.385900 15.198500
37   1  0.7273  6.199080  2.361760  3.489650
38   1  0.7479  6.747310  2.867480  9.468810
39   1  0.5828  5.876370  3.450210 15.417400
40   1  0.7869  6.679360  9.003470  3.560490
41   1  0.7131  6.403220  9.446060  9.317550
42   1  0.7785  6.349900  9.187030 15.513400
43   1  0.7451  6.253020 14.928700  3.248460
44   1  0.7540  6.605390 15.487700  9.750170
45   1  0.7113  5.976270 14.661200 14.982500
46   1  0.7369 12.279600  2.979410  3.561140
47   1  0.8197 12.247400  3.281000  8.933000
48   1  0.7929 12.218000  2.766510 15.389100
49   1  0.7708 12.188400  8.845240  2.733630
50   1  0.8519 12.835900  9.355930  9.539910
51   1  0.7602 12.892100  8.700580 15.407200
52   1  0.8193 12.043100 14.702900  3.081870
53   1  0.7308 12.259200 15.587500  9.854770
54   1  0.7308 12.576300 14.656000 15.682100
55   1  0.7894  3.561330 18.103800  3.020380
56   1  0.7323  3.191660 18.807400  9.006880
57   1  0.8031  3.656610 18.343800 15.132700
58   1  0.7390  4.064520  5.488880  3.141100
59   1  0.8180  3.136480  6.167540  9.036610
60   1  0.7640  3.428350  5.813650 15.747100
61   1  0.7855  3.310200 12.362700  3.197740
62   1  0.7491  3.547600 12.028400  9.097130
63   1  0.6793  4.058060 12.300100 16.017400
64   1  0.7905  9.370440 17.151000  3.635910
65   1  0.7942  9.270910 -0.105684  9.377920
66   1  0.7998 10.236000 17.910200 16.203400
67   1  0.7495  9.627950  5.224160  3.661950
68   1  0.7629  9.296190  5.922640  9.156390
69   1  0.7667  9.631900  5.517480 14.957900
70   1  0.7351  9.273250 11.546800  3.373910
71   1  0.7620  9.206930 12.036400  9.519130
72   1  0.8219  9.162200 11.975100 15.888700
73   1  0.6822 14.531900 17.915500  3.605190
74   1  0.8716 15.264900  0.222957  9.682120
75   1  0.7896 15.832900  0.429049 15.258100
76   1  0.8024 15.655600  6.377030  3.183750
77   1  0.6841 15.591000  6.272990  8.941640
78   1  0.8693 15.094000  5.963280 15.338900
79   1  0.8614 15.330600 11.541800  3.346100
80   1  0.7985 15.483800 12.243200  9.336850
81   1  0.6361 14.245900 11.713900 14.616600
82   1  0.6513  3.812300  3.200610  0.390355
83   1  0.7174  3.793830  2.633470  5.881420
84   1  0.8920  2.828790  3.617140 12.070400
85   1  0.8246  3.012290  9.189750  0.340372
86   1  0.7070  3.496760  8.730200  6.023180
87   1  0.8034  3.418910  9.215420 12.007900
88   1  0.7961  2.950620 15.271600 -0.017125
89   1  0.7855  3.741310 15.192500  6.715150
90   1  0.6857  3.625960 15.564400 11.937300
91   1  0.8722  9.456930  3.033010  0.302054
92   1  0.6382  9.847880  3.133040  6.696360
93   1  0.6995  9.512820  2.831270 12.745900
94   1  0.7652 10.210900  8.720980  0.468294
95   1  0.8483  9.212600  9.265880  6.350350
96   1  0.7907  9.450610  8.337940 12.556400
97   1  0.8336  9.244880 14.962600  0.016466
98   1  0.7310  9.249570 15.053000  5.984040
99   1  0.8050  9.731040 15.051400 12.733600
100  1  0.7779 15.213600  3.248990  0.306289
101  1  0.7906 15.681500  2.719510  5.710660
102  1  0.8173 15.283500  3.438980 12.541500
103  1  0.8248 15.896600  9.083480 18.551800
104  1  0.7564 14.625500  8.945490  5.638250
105  1  0.7260 15.651500  8.860550 12.227600
106  1  0.7130 15.745900 15.131700 18.453100
107  1  0.7672 15.570700 14.539600  6.330340
108  1  0.8075 15.416400 15.174000 12.318700
109  2 -0.8170  3.648430 -0.310676 17.945000
110  2 -0.7333  2.941540 17.975500  6.251610
111  2 -0.6982  3.387960 18.816800 12.657500
112  2 -0.7681  2.989260  6.393110  0.758068
113  2 -0.7647  3.320960  5.869530  6.361340
114  2 -0.6124  3.357420  6.180680 12.781400
115  2 -0.8058  3.148040 12.201900  0.316779
116  2 -0.7671  3.156300 12.384100  5.656360
117  2 -0.7968  3.419470 12.048500 11.704000
118  2 -0.7377  9.516550 17.519000  0.476529
119  2 -0.7480  8.903980 18.138600  6.633980
120  2 -0.7453  9.736520 -0.128597 13.052800
121  2 -0.6656 10.011100  5.908220  0.621911
122  2 -0.7621 10.100800  6.510030  6.390480
123  2 -0.9074  9.305510  5.539180 12.380100
124  2 -0.7208  9.871080 11.732700  0.380977
125  2 -0.8206  9.590470 12.160200  6.427410
126  2 -0.7374  9.377760 10.996000 13.042700
127  2 -0.6975 15.700100  0.524540  0.204118
128  2 -0.7750 15.153700 17.969700  6.323270
129  2 -0.7968 15.496200  0.234966 12.249400
130  2 -0.8665 15.574200  5.967320 18.066100
131  2 -0.7765 15.607300  6.338630  5.842320
132  2 -0.9541 14.991900  6.069570 12.651100
133  2 -0.7677 15.468000 11.939400 18.783000
134  2 -0.8391 15.181000 11.898300  6.276520
135  2 -0.6968 16.174600 12.574600 12.267800
136  2 -0.8912  3.494780  2.732480  3.216330
137  2 -0.7876  3.337750  3.439500  9.466030
138  2 -0.7622  2.990750  3.047410 14.985700
139  2 -0.7919  3.619260  9.315650  2.947880
140  2 -0.8079  3.006070  9.204160  8.868270
141  2 -0.7209  3.389890  8.888750 15.811400
142  2 -0.6769  2.929090 15.810200  3.697000
143  2 -0.7579  2.907860 15.935300  9.565150
144  2 -0.6514  2.608870 15.709600 15.334500
145  2 -0.6791  9.692890  1.981110  3.154590
146  2 -0.8297  9.464200  2.592110  9.516840
147  2 -0.8729  9.579260  3.062560 15.876700
148  2 -0.8016  9.505430  8.686070  3.830020
149  2 -0.6807  9.407700  8.633970  9.467050
150  2 -0.6689  9.563500  8.204610 15.343900
151  2 -0.8149  9.218650 14.382900  2.845380
152  2 -0.7228  9.239260 14.913200  9.413320
153  2 -0.7137  9.371090 15.032300 15.327500
154  2 -0.8204 15.177100  3.116010  3.273130
155  2 -0.6676 15.367000  2.869360  9.054590
156  2 -0.7879 15.271500  3.204940 15.375700
157  2 -0.8974 15.053800  8.875970  3.062900
158  2 -0.7915 15.745000  9.623970  9.416390
159  2 -0.8582 15.606400  8.856650 15.265400
160  2 -0.7111 15.261300 14.644300  3.486770
161  2 -0.8170 15.597400 15.474900  9.725510
162  2 -0.8100 14.963400 15.146100 15.304400
163  2 -0.7664 18.399600 -0.210064  2.574940
164  2 -0.6854 18.096000 18.448400  8.672690
165  2 -0.7351  0.506904  0.164690 15.068800
166  2 -0.6234  0.468905  5.520610  3.057910
167  2 -0.9123  0.310894  5.834050  9.376080
168  2 -0.7327  0.534810  5.634810 15.126300
169  2 -0.7447 18.046400 12.177700  2.901710
170  2 -0.6155 18.873300 12.558500  9.570040
171  2 -0.7182  0.865376 12.492700 15.429300
172  2 -0.8012  6.420120 17.855800  3.111000
173  2 -0.8154  6.496400  0.233811  9.403810
174  2 -0.6508  7.333130 -0.419258 15.506800
175  2 -0.7030  7.054610  5.567480  3.551910
176  2 -0.7013  6.086700  6.230240  9.637340
177  2 -0.8293  6.267270  6.466750 15.453800
178  2 -0.8520  6.464610 11.701500  3.307740
179  2 -0.8375  6.614940 12.592400  9.420400
180  2 -0.9212  6.561910 12.091000 15.561400
181  2 -0.8763 12.082800 17.426500  3.422740
182  2 -0.7207 12.399300  0.355031  9.342130
183  2 -0.7705 12.894400 18.348700 15.425400
184  2 -0.8572 12.620900  6.018670  3.252020
185  2 -0.6870 12.102600  6.108330  9.656710
186  2 -0.8296 12.613900  5.881380 15.541300
187  2 -0.7612 12.762400 11.766000  2.613370
188  2 -0.7047 12.425800 12.373400  9.433840
189  2 -0.8442 12.057800 11.644000 15.893700
190  2 -0.7769  1.025960  3.126020 -0.071520
191  2 -0.6697 18.796000  3.271450  5.871910
192  2 -0.8350 -0.181269  3.125680 12.249000
193  2 -0.8758  0.437599  9.497400 18.468900
194  2 -0.6989  0.070741  8.938660  6.744590
195  2 -0.7960  0.647195  9.301700 12.170700
196  2 -0.8053  0.341788 15.496700 17.998700
197  2 -0.6757  0.305461 14.731400  6.141150
198  2 -0.6719 18.559600 15.209300 12.377600
199  2 -0.8955  6.726570  2.816340  0.251412
200  2 -0.8358  6.772530  3.390980  6.234620
201  2 -0.6928  5.480370  3.135210 12.441700
202  2 -0.6880  7.154970  8.394040  0.704224
203  2 -0.8876  6.605230  9.095400  6.607760
204  2 -0.7124  6.284990  9.203670 12.425000
205  2 -0.6690  6.306840 14.920200 18.116200
206  2 -0.7841  6.427330 15.406100  6.027660
207  2 -0.8386  6.984220 15.037400 12.424600
208  2 -0.7234 12.162300  2.721410  0.365615
209  2 -0.8350 12.890600  3.213930  6.214770
210  2 -0.6593 12.303100  2.480090 11.889000
211  2 -0.7720 13.050600  8.986490  0.285810
212  2 -0.7886 12.396100  9.116340  7.064000
213  2 -0.8883 12.887600  9.282730 12.147700
214  2 -0.8017 12.523800 14.984600  0.695682
215  2 -0.6609 12.507000 15.143400  6.861940
216  2 -0.8620 12.394900 14.663300 12.703700

