Generated by pymatgen.io.lammps.data.LammpsData

320  atoms

  2  atom types

0.000000 24.637781  xlo xhi
0.000000 17.058433  ylo yhi
0.000000 27.370788  zlo zhi

Masses

1  208.9804
2   78.9600

Atoms

1    1  0.5724  5.038430  4.666970  6.461360
2    1  0.7500  4.817690  4.385300 20.503600
3    1  0.4977  0.599830 11.110500  4.446740
4    1  0.6950 -1.364600  5.582240 19.149000
5    1  0.6696  9.891060  7.657530 10.634700
6    1  0.7180 10.517000 16.201400  9.611100
7    1  0.5877 -1.216570 18.113900  2.648580
8    1  0.5107  7.773060  9.482150 13.122600
9    1  0.7867  1.899140  5.743570 11.690200
10   1  0.6334 20.308600 18.813100 19.922900
11   1  0.5965 -1.553110  9.959760  9.069750
12   1  0.7034  0.870781  2.872620 23.953900
13   1  0.6445 13.462600 17.474100 19.573000
14   1  0.7463 15.366700  5.366010 23.952200
15   1  0.5440 17.689100 13.073600 12.417100
16   1  0.6571 18.097800 16.025200 27.226100
17   1  0.5899  7.627360  2.615500  4.210820
18   1  0.7505  7.628990  9.574890 20.813600
19   1  0.8621  0.354832 16.350100 25.016300
20   1  0.7508  5.159610 15.093800 23.483800
21   1  0.6276 17.986600  9.800070 13.771200
22   1  0.6207 16.123100 13.030400 16.021600
23   1  0.5203 16.236000 10.898800  1.176090
24   1  0.5554 13.839900 10.870800 20.921500
25   1  0.8251 19.203300 16.642700 13.432600
26   1  0.7127 18.809300  2.210560 25.527300
27   1  0.4661  3.610320 12.158300  6.907380
28   1  0.7515 -1.737570  7.691400 23.154200
29   1  0.7217 15.441500 17.949600 12.429600
30   1  0.6596 10.887000 15.184100 19.646100
31   1  0.7430  0.631536 14.543500 10.929100
32   1  0.6459 12.129300 11.814700 17.724800
33   1  0.7344  2.172550 16.374400  7.897430
34   1  0.8037 17.434200  3.984330 20.617300
35   1  0.6353  4.563600 13.796700  3.772760
36   1  0.6858  0.484295 10.934300 16.011600
37   1  0.7145 11.985500  1.819970 12.175200
38   1  0.5020  7.079030  7.803240 15.630700
39   1  0.6611 10.295400  1.503600  5.829390
40   1  0.7068 13.266300  6.643560 14.110900
41   1  0.6350 -0.975641  2.442830 10.565300
42   1  0.6929 -0.966474 17.973300 21.478300
43   1  0.7140 21.225200 12.806000 14.867800
44   1  0.5669 19.835600 10.251800 26.219200
45   1  0.5497  9.730910  5.083030 13.968700
46   1  0.7621 11.960900  7.576800 27.029300
47   1  0.8204 10.374200 16.467200 15.670700
48   1  0.6266  7.355410 10.746400 26.569000
49   1  0.7093  9.460880 10.487700  7.448010
50   1  0.7768  2.239070  8.214590 21.075900
51   1  0.8003  6.869030  2.624180  0.183821
52   1  0.5566  6.398620 12.056500 15.455700
53   1  0.7274 19.345600  3.812560  9.367230
54   1  0.6120 10.694000  2.864230 25.449600
55   1  0.6539 22.511500 13.553300  6.809440
56   1  0.8787  2.447380  2.234280 18.885800
57   1  0.7454  8.601830  8.491770  2.135350
58   1  0.7166  3.286770  5.360560 24.838600
59   1  0.5574  0.812877  7.430860  8.974600
60   1  0.6596  2.998060 12.606400 27.181600
61   1  0.7241 16.682000  2.914970 16.583400
62   1  0.6660 20.100800 16.909700 23.285700
63   1  0.5980 10.568000 11.578100 11.274300
64   1  0.6045 20.574000 10.316700  2.647150
65   1  0.7344 -0.542492 12.353800 25.666200
66   1  0.6603  3.099420  2.028290 12.176500
67   1  0.7827  2.113430  1.910440  4.665540
68   1  0.8837 -1.399380 15.928200 17.414400
69   1  0.6313  4.964800  9.453820 24.160600
70   1  0.8150  7.027410 17.824500 19.445400
71   1  0.6841 15.891200 10.007500 23.705900
72   1  0.7082  7.871630  2.404260 15.165700
73   1  0.7216  8.356890  5.687940 22.778400
74   1  0.8384  6.847020  4.123170 11.582500
75   1  0.7552  6.806420 15.462700  0.995027
76   1  0.7471  8.177250 14.411600 12.332600
77   1  0.6479 -0.981508  8.836330  0.441903
78   1  0.6802  4.485950  7.645740 13.894700
79   1  0.5457 20.129400  1.290030  2.028140
80   1  0.6783 20.551200  3.875590 16.711700
81   1  0.6428 21.907200  4.247770 22.093200
82   1  0.7009  3.612420 12.905400 13.388000
83   1  0.6312  0.853118 13.894300  2.266220
84   1  0.6802  2.298130 16.053200 15.503700
85   1  0.7477 15.645900  2.719960  0.610150
86   1  0.5988 14.450300  6.586550 20.418800
87   1  0.6348 14.482700 12.908600 26.580200
88   1  0.7354 15.892600  8.085220 16.624400
89   1  0.7569 13.826900 16.579800 25.629500
90   1  0.6502  8.671910  4.121670  8.174300
91   1  0.7242  5.513740  1.632470 22.860800
92   1  0.6188 11.008900  9.760860 15.536300
93   1  0.6671 19.567900  7.069080 24.041500
94   1  0.5136 -1.505530  4.402830 13.774500
95   1  0.5775 20.002200 13.712900  1.650230
96   1  0.6545 -0.869964  7.538850 15.441000
97   1  0.7135 20.466400  6.863100 11.763300
98   1  0.6750  1.619650 11.486200 21.760300
99   1  0.7216  6.442900 14.965400  6.646790
100  1  0.6578 17.264000 16.803200 17.890000
101  1  0.7270 12.833500 13.196000 13.951600
102  1  0.4158 12.146500  5.391410 22.471500
103  1  0.7837  6.484360  7.232840  9.221470
104  1  0.8142 11.043100  4.439240  2.785180
105  1  0.6177 12.516400  3.344310 18.252200
106  1  0.6503  6.504170 15.542000 15.028200
107  1  0.8279  3.828480  4.115920 15.597000
108  1  0.8251  5.612800 14.620900 19.258700
109  1  0.5263 18.994000 10.836900  9.736640
110  1  0.5562 10.630300  6.458960 19.237400
111  1  0.5347 19.362800 14.430600  9.936200
112  1  0.8091 16.762300  4.637620 13.404900
113  1  0.6344 -0.941162 17.603900 13.046900
114  1  0.7135  0.874832  4.509440  1.947440
115  1  0.6945  2.984250  9.710880  9.923240
116  1  0.7031  3.872470 11.435500 17.413400
117  1  0.6889  5.001820  1.443520  9.353550
118  1  0.6594  9.319820 15.865900 25.762300
119  1  0.6300 19.612400 11.599500  6.237390
120  1  0.6235 12.334700 13.893300 22.627200
121  1  0.6904  6.969120  6.495090 27.063500
122  1  0.6425 11.219900 17.731100 22.767300
123  1  0.7830 13.797300  9.124570 11.853600
124  1  0.6763  9.205270 13.117900 23.140100
125  1  0.5923  2.833700  7.286080  5.549700
126  1  0.6201 -0.166250  3.614640 16.154100
127  1  0.7067 -1.281580 17.193300  7.475870
128  1  0.7511 17.008800 14.817300 21.097700
129  2 -0.5227  7.897150  1.991380 10.964400
130  2 -0.5830  7.206720  3.138690 21.676800
131  2 -0.6320  1.600250  1.842630 15.690500
132  2 -0.6948 -1.260380  1.377820 24.231700
133  2 -0.6474 -2.001620  5.204560 10.770900
134  2 -0.4820 18.768700  8.709940  1.203010
135  2 -0.1390 19.426800 13.662200 19.275600
136  2 -0.5672 15.070600 13.673800 23.992600
137  2 -0.3460 17.428700  7.287310 10.786000
138  2 -0.5009  4.529770  1.351450 17.113000
139  2 -0.4541  7.556730 11.523900  8.883130
140  2 -0.5825  2.111870  9.538590 23.829500
141  2 -0.6769 15.466300  4.923580 18.660100
142  2 -0.6471  6.365760 13.426700 25.952100
143  2 -0.0303 16.527500  7.066710  8.107770
144  2 -0.4823  9.472180  1.700120 17.566700
145  2  0.0737 16.907200 16.619300  6.321400
146  2 -0.2106 -1.559440 10.247400 20.111200
147  2  0.0089 15.905500  6.229400  3.617990
148  2 -0.5472 -0.769107 14.537200 15.355000
149  2 -0.2148  8.633400 12.922600  2.842110
150  2 -0.6469  9.463110 13.198900 14.657300
151  2 -0.1510 12.145000 11.383900  6.455760
152  2 -0.5830  7.873980 15.706600 17.940700
153  2 -0.6623  8.438320  4.565160  1.679690
154  2 -0.2300 18.753700 11.493000 17.071500
155  2 -0.5110  5.471340  9.550270  6.175060
156  2 -0.3897  5.231410  9.245600 19.767100
157  2 -0.4452 12.589500 17.951600  9.271630
158  2 -0.6599 14.430100 10.798800 15.680100
159  2 -0.6852 -2.199080 10.799100  5.990100
160  2 -0.3872  4.383650  7.210510 16.786700
161  2 -0.4910  1.283860  5.416970  6.121550
162  2 -0.3639  3.167720  3.682640 27.272700
163  2 -0.6092  6.115370 12.309800 12.526700
164  2 -0.7044  3.069930 10.520100 15.100300
165  2 -0.6556  4.269920  4.836890 12.753700
166  2 -0.5737 19.175100  3.686470 23.089100
167  2 -0.3359 -1.525650  8.099960  3.648380
168  2 -0.1329 14.187100  7.348920  2.672810
169  2 -0.4114  7.714290 14.716900  9.943440
170  2 -0.5027  8.629360 17.329800  1.317810
171  2 -0.5541  8.504400  7.194270  7.440830
172  2 -0.5610  9.109350  9.998660 23.678400
173  2 -0.6088 11.846500 14.800800 17.171800
174  2 -0.4720 12.737200  4.681540 -0.166661
175  2 -0.7102 20.430000 14.664100 12.511400
176  2 -0.6762 14.075100  8.541310 22.747500
177  2 -0.1037 12.014000 13.865000  1.295870
178  2 -0.6364  1.028960  3.385770 20.844700
179  2 -0.0396 11.767700 11.764500  3.078200
180  2 -0.4455 17.320400 17.111900 24.376300
181  2 -0.4331  0.361566  5.294800 25.252500
182  2 -0.5621  9.988250 12.516900 19.435100
183  2 -0.5195 17.914600 12.165900  3.860880
184  2 -0.2329 -2.152900 11.969200 17.588800
185  2  0.0392 14.088200 16.885300  4.168560
186  2  0.0912 20.144200  9.157220 19.452200
187  2 -0.5663  7.803570 17.939900 24.673100
188  2 -0.4240  4.411220 15.473500  9.748620
189  2 -0.4672 18.094600 16.651600  2.835680
190  2 -0.6797 11.165800  6.700080 16.092600
191  2 -0.0666 18.455400  5.127320  2.111070
192  2 -0.3761 13.051700 10.038500 25.400600
193  2 -0.0358 14.100100 13.364100  3.639300
194  2 -0.6080  4.354170 18.040300 20.420200
195  2 -0.5105  6.984760 16.993600  4.792790
196  2 -0.5325  8.119760 10.039000 17.392400
197  2 -0.6760  9.858980  6.075320 24.942800
198  2 -0.5976  7.024340  4.101110 25.230500
199  2 -0.0880 12.850800  9.864740  3.744920
200  2 -0.6320 13.531100 16.334400 22.412500
201  2 -0.6965  3.075080 14.871700  5.742870
202  2 -0.5045  7.710650  6.404760 20.481700
203  2 -0.3266 10.616600 10.692700  0.155207
204  2 -0.4701  1.662070 12.995700 18.071400
205  2  0.0617 20.972300  5.956350  5.165400
206  2 -0.1343 18.963400  7.576340 19.570400
207  2 -0.5980 18.001000 13.370700 26.224900
208  2 -0.5330 17.150200 18.049800 20.765600
209  2 -0.8319  0.827324  3.435140 12.746300
210  2 -0.6636 -1.717780  9.873520 24.961600
211  2 -0.5243  1.890230 17.513200 22.920200
212  2 -0.5188 -0.893243  2.623700  4.568520
213  2 -0.4112 12.405500  8.996840  9.475690
214  2 -0.1151 13.877000 14.981700  8.459350
215  2 -0.6902 14.955100 15.084100 19.173000
216  2 -0.0614 14.161200 17.593100  5.698380
217  2 -0.5768  1.319530  5.713340 15.353600
218  2 -0.4115  4.440270  4.314140  3.428020
219  2 -0.3522  0.347948 11.882300 13.041700
220  2 -0.7012 22.113100 11.907900  0.408212
221  2 -0.4893  7.036600  4.617670 16.960600
222  2 -0.5773 15.958100 10.888500 12.076100
223  2 -0.5155 18.350300 17.386000 10.902100
224  2 -0.4753  5.709040 11.977000  2.006660
225  2 -0.3605  9.562640 14.288000  6.973440
226  2 -0.6790 19.287800 18.798200 17.347400
227  2 -0.6608  2.866480 15.659300 12.505700
228  2 -0.5329 11.645400 13.819900 25.517900
229  2 -0.4336 21.949800  7.605260 17.256200
230  2 -0.5551  8.461900 17.995700  7.859250
231  2 -0.1743 18.369600  3.564170  3.782950
232  2 -0.6220 15.829900 14.475400 13.557400
233  2 -0.4772 15.041000 16.594200  0.729669
234  2 -0.6513  8.558320 17.084800 13.917000
235  2 -0.3322 -0.700229 14.258200 23.552400
236  2 -0.5272 20.595900  8.705950  8.734960
237  2  0.0089 15.202100  9.399660  6.864830
238  2 -0.1934 19.521200 13.718900 23.122400
239  2 -0.5888  4.243490  1.477480  6.576620
240  2 -0.4633  2.758890  4.569340 18.320900
241  2 -0.5006 11.308500  5.201800 11.125300
242  2 -0.5446  5.336100 11.254300 21.865000
243  2 -0.7187 -0.022013 14.855500  7.757320
244  2 -0.5177  3.370450 14.993900  1.181910
245  2 -0.5284 19.333100  3.808880 12.272100
246  2 -0.5497 14.998000  3.387000 21.805100
247  2 -0.7549 -1.195190 16.896900 10.527600
248  2 -0.4774 19.452300 14.992800 16.049100
249  2 -0.7472  5.830360  4.628270  9.333590
250  2 -0.5876  4.527080  6.854920 22.383300
251  2 -0.5779  0.647133 11.513000 10.001500
252  2 -0.3533  4.405340 17.280600 25.746300
253  2 -0.4945 14.728900  2.173340 25.410200
254  2 -0.1822 17.405100 11.173500 20.110500
255  2 -0.5962 20.596300  6.283670 14.383700
256  2 -0.4258 11.608800 18.590600  0.326085
257  2  0.0490 13.167400 14.622300  6.512600
258  2 -0.5457 17.317400  6.271570 22.081700
259  2  0.0118 15.047800 11.034400  5.744050
260  2 -0.3643  1.128590 16.611600 18.515800
261  2 -0.4715  1.361240 18.532800  1.792570
262  2 -0.6558 15.123800  4.764500 15.163500
263  2 -0.4831 13.130500 12.378800 11.373600
264  2 -0.6146 21.076800 10.533800 11.925000
265  2 -0.6117 10.183000  4.306140  5.519200
266  2 -0.5362  7.142200 15.951500 21.468700
267  2 -0.4931 -0.989665 14.981000 27.371800
268  2 -0.0802 -2.408430  4.399130  7.039640
269  2 -0.5047  6.211040  8.528860  1.057810
270  2 -0.7096 13.288100  9.242830 18.798200
271  2 -0.2944 13.547900  3.165700  3.070800
272  2 -0.5822 21.832300  5.768020 24.576600
273  2 -0.4934 16.413600  8.149670 25.755000
274  2 -0.4421  4.118700  7.360110 26.176800
275  2 -0.7540  3.221800  7.176810  9.399500
276  2 -0.0711 -1.417380 12.940000 22.210500
277  2 -0.0501 14.592100  6.015120  9.665490
278  2 -0.4963 14.474700 17.743700 16.085600
279  2 -0.5152 11.939100  2.635260 14.782000
280  2 -0.9269 10.485300  9.424070 12.926900
281  2 -0.2091 21.444100  6.508050  1.505300
282  2 -0.5950  0.032769  6.579220 21.901400
283  2 -0.2422 20.399700  3.090890  6.791120
284  2 -0.5683 17.709900  1.985720 14.143000
285  2 -0.0658 12.113000  7.520550  6.319560
286  2 -0.0454 19.153500  6.694570  6.411490
287  2 -0.1181 11.305500 16.025000  3.836930
288  2 -0.3950  3.513470 14.048900 21.175900
289  2 -0.4241 14.649800  3.502830 11.426600
290  2 -0.5449  2.204330 13.958900 24.944800
291  2 -0.6293 15.659800  7.747500 13.655200
292  2 -0.2451 18.516600 10.449500 22.081900
293  2  0.0525 16.034500 14.077800  4.788790
294  2 -0.4996 -2.718350  0.871264 15.194200
295  2 -0.7233 20.443300 17.391100 26.687400
296  2 -0.5332  1.730370  8.141460 12.623300
297  2 -0.6380 -0.938343 14.130300  4.188440
298  2 -0.6132 -1.632250  1.671890 18.483600
299  2 -0.0780 16.655300  4.796170  7.374060
300  2 -0.8669  7.712540  6.371640 11.845500
301  2  0.0614 13.680200  6.247800  6.341980
302  2 -0.6666 11.061900  2.819490 20.542400
303  2 -0.4416 19.455400 14.937000  6.720040
304  2 -0.8267  9.955510 15.308700 22.815600
305  2 -0.8074  4.811500 13.785100 16.829100
306  2 -0.4915  2.360650 10.443500  2.216910
307  2 -0.4792  5.492240  9.480710 11.063000
308  2 -0.2794  5.057310 18.045400  2.019370
309  2 -0.7886 20.884200  4.364340 19.729200
310  2 -0.5587 11.582000 15.828900 12.708600
311  2 -0.3594 17.375600 12.410500  7.431660
312  2 -0.5206 21.452600 16.180900 20.592600
313  2 -0.4493  0.797501  7.356360 18.701400
314  2 -0.2800  2.105980  7.065170  1.825820
315  2 -0.5588  5.790370  1.769720 13.573200
316  2 -0.4426 17.269000  4.450590 26.204100
317  2 -0.3300 18.734700  8.947520 16.109200
318  2 -0.5424 10.747100  7.282550  2.437440
319  2 -0.0552 17.310900  1.708620  6.214720
320  2 -0.5825  0.908326  1.833030  7.679880

