Generated by pymatgen.io.lammps.data.LammpsData

504  atoms

  2  atom types

0.000000 17.774667  xlo xhi
0.000000 21.986255  ylo yhi
0.000000 41.650458  zlo zhi

Masses

1  208.9804
2   78.9600

Atoms

1    1  0.8065 13.324600 10.335200 12.204900
2    1  0.7262 17.033100  2.288470 10.146000
3    1  0.6559  8.458300  5.203890 10.225300
4    1  0.5111 14.873100 10.678900 16.130700
5    1 -0.0465  1.920350 10.196400  7.937960
6    1  0.5380  4.018450  0.184428 10.788500
7    1  0.7054  2.071090  1.122550  8.058480
8    1  0.1311 17.208700  7.281860 11.740400
9    1  0.5569  9.225680 11.113800 10.206000
10   1  0.4877  5.241400 15.346900 12.848000
11   1  0.7205 14.159600 13.575300  6.366910
12   1  0.4126 11.219000 19.094000 17.806000
13   1  0.1941  0.256715  5.014470 13.710000
14   1  0.7275  7.759850  2.164310 13.392000
15   1  0.0674  4.294220  9.340070 11.637400
16   1  0.4086  7.009380  9.275930 13.243900
17   1  0.5274 13.588600 20.131500  7.711930
18   1  0.4951  2.658370 18.632200  9.732500
19   1  0.7611 10.977900 18.764100 10.251400
20   1  0.2603 10.079200  7.849870 17.573000
21   1  0.3428  8.543400  4.729490 18.301200
22   1  0.1484  4.391950  6.540910 11.913700
23   1  0.6023  9.309260  7.663880  7.901860
24   1  0.7020 12.713700  0.813261 11.416300
25   1  0.5956  2.451600 10.312600 41.069800
26   1  0.7007  3.610450 21.635600  5.290540
27   1  0.1616  5.120430  9.020200  1.104670
28   1  0.2030  7.460400  4.447440  2.415850
29   1  0.1282  3.777610 10.987800  5.329360
30   1  0.6793  6.216440 21.770600  8.550610
31   1  0.8079  3.036120 20.478400  0.204565
32   1  0.0907  7.345010  6.831520  0.663625
33   1  0.2911  8.138370  7.985400  4.672570
34   1  0.0422  7.677150  9.952570  6.689550
35   1  0.6919 13.142500 14.030500 39.722100
36   1  0.6848 15.973500 14.533500  2.138460
37   1  0.4045  2.410200 17.939400 38.936200
38   1  0.6583  9.997890 15.298600  0.488988
39   1  0.5214  8.286500 16.036900  7.755710
40   1  0.3082 16.996500 11.064500  7.928370
41   1  0.6914 14.755000 11.991200  1.655680
42   1  0.8215 16.441000 10.777700 39.407400
43   1  0.6937 10.522200 21.654300  1.271570
44   1  0.8045  6.704720 19.538500 41.690400
45   1  0.6973 16.067900  7.054220 41.051700
46   1  0.8848  0.448676 19.235900  2.678520
47   1  0.5772 14.553100 21.669200  3.823340
48   1  0.7695 17.444600  2.643800 41.438900
49   1  0.5353 16.400000 12.538300 10.567500
50   1  0.2552  7.692610 13.609500 16.472900
51   1  0.2754  5.171920 15.233200  6.372960
52   1  0.2157  2.192090  6.273320  8.190790
53   1  0.3653  6.985350 13.116300 13.477100
54   1  0.6773  3.964070  3.350630 40.331400
55   1 -0.0190  3.333500  8.070220  6.178940
56   1  0.8175 11.742400  6.012690 11.625600
57   1  0.6617 12.444000  7.467110  6.348940
58   1  0.1143  7.060370 12.682800  7.179710
59   1  0.2215  8.553700 13.726100  4.059010
60   1  0.3513  6.411460 18.510600  6.401410
61   1  0.7896  9.024690  3.191490  7.515320
62   1  0.6691  0.086613 21.008000 12.064900
63   1  0.6476 15.105800  5.263420  5.253750
64   1  0.1251  2.727860  9.446370  2.784890
65   1  0.2803  1.794300 12.954200  6.683690
66   1  0.8019  2.694190 13.753700 41.425400
67   1  0.3967  3.506480 18.787700  5.539000
68   1  0.5077 14.592900 18.497600  5.020510
69   1  0.4336  2.074330 15.912300  5.067080
70   1  0.7021 14.053200  8.437070  3.075300
71   1  0.7539  7.444020  1.004500  4.564860
72   1  0.7892 17.356700 20.180800  7.925240
73   1  0.5252  5.396490  1.399710  2.134390
74   1  0.6843  5.286530 18.577700 14.480100
75   1  0.2187  3.324790  5.599380  4.817880
76   1  0.6096 11.300100 20.993300  5.679470
77   1  0.4606 16.226000  4.853430 10.384000
78   1  0.1709  5.043520  7.845300  9.125370
79   1  0.2893  4.505350 12.188000 10.896200
80   1  0.0147  4.745850 10.859300  8.364060
81   1  0.1392  0.713738  7.065590  5.234460
82   1  0.1848  7.017820 11.440200  4.233510
83   1  0.7512 10.212700 10.448500 40.261900
84   1  0.4995 10.583700 11.316000  2.415950
85   1  0.7146 16.070400  2.082700  5.258380
86   1  0.0892  5.220220  7.657690  4.064250
87   1  0.5703 11.210600  5.402350  3.382800
88   1  0.1043 17.516700  8.180990  8.748170
89   1  0.7644 14.381500 17.616800 10.218000
90   1 -0.0960  2.215150  8.275110 10.186400
91   1  0.6072  0.827876 16.095800  7.990120
92   1  0.7316 12.654200  2.466810  8.371270
93   1  0.1132  0.909727 10.251600  5.487370
94   1  0.3985 11.154300 13.105700  5.172820
95   1  0.6829 16.150200 16.294000  5.300190
96   1  0.5875  1.997900  2.865430  3.907560
97   1  0.7664 16.749300 13.094700 24.348500
98   1  0.7466  5.673950 16.263200 23.335400
99   1  0.6097  3.692420  3.306030 25.939000
100  1  0.7090  4.408070  8.670870 22.830700
101  1  0.4511  3.300270 13.024600 30.149100
102  1  0.3421  4.211670 19.454500 19.742200
103  1  0.7429 15.352400 19.590100 24.989100
104  1  0.3086  7.529750  6.489360 16.623600
105  1  0.5615  6.139050  2.260350 28.296700
106  1  0.8120 11.501300  5.579170 23.700000
107  1  0.8153 15.128600  9.158190 25.921700
108  1  0.7017  9.387960  9.085690 26.315300
109  1  0.7011  5.839610 19.461900 25.744400
110  1  0.5922  6.750610  3.838830 21.379700
111  1  0.7954  7.856750  5.143110 26.380900
112  1  0.7047 12.749400 12.302800 23.757100
113  1  0.7962  3.892360 12.470300 24.690900
114  1  0.2505 16.503800 13.460700 30.160200
115  1  0.5855 13.411500 16.198300 26.426400
116  1  0.6856  8.606080 21.212200 28.271100
117  1  0.8210  0.603784  5.798790 28.820500
118  1  0.4281 16.385500  0.962780 24.481800
119  1  0.5821 13.698600 19.197500 21.337500
120  1  0.6711 13.206400  8.912540 22.456300
121  1  0.4143  5.318140 17.533900 10.542400
122  1  0.3375  3.590120 21.708200 14.541100
123  1  0.7468 16.077600  6.321080 20.473400
124  1  0.1693  3.351000  4.711520 14.601400
125  1  0.4203  7.154670 17.562700 19.832800
126  1  0.7069  9.030430 19.503700 22.519300
127  1  0.7152 16.010300  0.353787 15.209400
128  1  0.4645 12.819100  8.206700 15.753200
129  1  0.2715 17.524400  7.850680 14.484100
130  1  0.5190 13.961700  9.235950 19.039000
131  1  0.0240  0.450703 21.236000 19.760000
132  1  0.6746  9.287560  0.648165 10.639700
133  1  0.4142  2.151140  3.967310 10.958700
134  1  0.8333 10.843900  1.502320 15.273600
135  1  0.0904  3.197720  7.976820 15.593400
136  1  0.3777 14.667300 14.884200 16.994700
137  1  0.2177  1.355380 18.550900 19.037800
138  1  0.7491 15.088200 14.496900 13.372800
139  1  0.8436 10.668900 14.708200 22.320200
140  1  0.5406 10.378600 18.214100 14.633600
141  1  0.4859 10.074200 11.718200 15.784600
142  1  0.4277 16.768300 12.948100 17.995200
143  1  0.2191  0.773655  1.971190 18.203200
144  1  0.5568 17.349300  5.449040 16.829900
145  1  0.4501  5.041690 15.537500 17.995500
146  1  0.3382  2.002640 10.819700 14.063700
147  1  0.1352  4.606720  5.949610 17.400500
148  1  0.3036  5.781140  8.602770 15.839500
149  1  0.3301  8.280100 19.263300 17.564900
150  1  0.3350 17.067600  1.457330 20.872600
151  1  0.3455  1.652570  2.341210 13.833800
152  1  0.7790 13.776200  3.297520 13.817000
153  1  0.6272  8.298050  7.446260 23.079500
154  1  0.7124  9.745350 10.654700 23.329200
155  1  0.7662 13.674600 19.074200 13.877700
156  1  0.8303  7.968990  0.990161 25.048100
157  1  0.3534  7.032540  1.077500 17.650900
158  1  0.5634  2.547890 12.374500 20.376900
159  1  0.0656  3.087930  0.467655 20.753200
160  1  0.6775 11.985700 14.934000 10.856400
161  1  0.0762  1.007820 20.961000 16.779200
162  1  0.3535  2.454480  0.443574 25.642300
163  1  0.3416 13.828200 17.822500 18.069200
164  1  0.7654 14.672700  3.916890 22.080700
165  1  0.7359 10.564200 11.923600 19.488800
166  1  0.6839  0.874650 17.113900 12.614600
167  1  0.4598  3.031260 13.529200 15.404800
168  1  0.5623  6.385420 20.588400 11.883900
169  1  0.6824  1.116160 15.177100 22.294500
170  1  0.7470  1.835490  5.398200 22.298800
171  1  0.6230  0.946000  9.264510 21.253900
172  1  0.3606 10.376800 14.968500 15.096900
173  1  0.7867 10.673800  2.408950 21.453300
174  1  0.0280  3.912130 21.752100 17.597500
175  1  0.2377  1.173690  0.402483 22.799700
176  1  0.6738 14.654600  2.836600 25.687500
177  1  0.6745  4.503880 10.315600 28.228500
178  1  0.4718  4.758630 22.250400 23.528700
179  1  0.3130 16.141900 18.712300 20.223200
180  1  0.5815  7.497390  8.608530 19.571200
181  1  0.5162  9.481580 17.418600 26.620800
182  1  0.6020  5.067410  3.604530  9.139970
183  1  0.4577  2.904080  7.358730 19.535200
184  1  0.5197 14.523800 14.253800 19.845100
185  1  0.2878  9.475510 15.379000 18.381700
186  1  0.1195  4.669380  3.113000 18.779900
187  1  0.5462 14.231000  0.398448 21.259400
188  1  0.7705 13.291400  4.484690 18.014100
189  1  0.4957  6.101270 11.929700 17.606600
190  1  0.3408  3.074610 11.061600 17.362200
191  1  0.0545  3.004610  2.167520 16.368700
192  1  0.3932 -0.083214 17.651000 15.941100
193  1  0.3219 14.684900 10.509300 36.448000
194  1  0.2631  5.260340 17.139300  3.776820
195  1  0.5368 16.283000  4.612430 37.889600
196  1  0.6008  6.071300 14.718900  1.034000
197  1  0.3363 -0.004519  8.606680  2.589700
198  1  0.5678 16.267800 16.976100 41.612400
199  1  0.7917  0.815667  1.062950 36.607600
200  1  0.2890 16.547900  9.542410 34.676800
201  1  0.1419 10.200700  4.476170  0.619942
202  1  0.3675  6.972150  9.131830 40.321400
203  1  0.7445 14.218400 21.440200  0.302102
204  1  0.5877 12.279700 16.719900  5.995460
205  1  0.4246  9.221750  6.477750 40.110800
206  1  0.6191 13.267600  4.017530  0.801436
207  1  0.2175 10.135900 10.635200  5.124090
208  1  0.4103 12.186000  9.509520 36.670700
209  1  0.5337 14.646100 17.957300 39.622200
210  1  0.3611  9.217120  2.174330 40.370600
211  1  0.1233  7.173290  4.126480 40.970200
212  1  0.7542  8.469860  5.638440 35.666400
213  1  0.7779 11.363800 15.924300 37.265600
214  1 -0.0120 17.463700 12.249400 34.582100
215  1  0.6953 11.072300 20.452900 37.754700
216  1  0.7072  0.853062  5.383060 33.138400
217  1  0.6155 16.977600 16.337100 29.238600
218  1  0.8637  1.072880 18.399700 25.778300
219  1  0.2478  1.697900 10.346600 35.823100
220  1  0.6039  5.658820  6.024400 29.311600
221  1  0.1984  2.608110 13.062300 35.454100
222  1  0.6013  4.890290 17.466700 28.226400
223  1  0.8408  5.247390 21.198400 38.510200
224  1  0.5727 17.231800  2.366330 29.918000
225  1  0.5438  9.547390  8.794180 35.852700
226  1  0.3981  9.733820 11.804500 32.141600
227  1  0.7464  7.245720 15.275800 25.963100
228  1  0.5138  5.247190 20.586300 33.010800
229  1  0.4342  5.599950 20.298500 29.962200
230  1  0.4798  9.101960  4.795170 30.757200
231  1  0.5191 12.570300  8.515540 30.885600
232  1  0.4628  8.137740 13.167200 29.752800
233  1  0.5050 13.982500 11.977700 28.852000
234  1  0.1018  0.236972 14.659700 32.536900
235  1  0.6130 11.942000 20.813100 25.860100
236  1  0.5883 14.181800  5.432070 35.572600
237  1  0.4651 10.854900  6.191420 19.881900
238  1  0.7026  0.832017 12.940100 27.120800
239  1  0.6154 11.481800 18.954100 29.657200
240  1  0.6137 12.497600  2.241320 29.308400
241  1  0.4984  4.765070 16.715400 33.992300
242  1  0.6184 13.113300  3.178430 38.739300
243  1  0.5795  6.182260  9.965490 36.766700
244  1  0.2686  0.858856 14.192100 37.929000
245  1  0.5945  8.242150 12.790100 36.463000
246  1  0.7668  6.864490 17.230600 38.875700
247  1  0.6176  8.827350 17.161200 31.275100
248  1  0.4619  2.852820 19.648400 35.854300
249  1  0.5221  3.497620  7.989010 34.205700
250  1  0.4947  9.195370  8.358600 29.983100
251  1  0.5735 11.111800  6.617100 33.419100
252  1  0.2290 13.289400  9.989550 33.605600
253  1  0.6736 10.416000  1.686100 36.814400
254  1  0.3896  6.713150  9.794940 31.763600
255  1  0.6462 13.093200  6.690160 39.595400
256  1  0.6881 15.665000  7.700250 29.768700
257  1  0.1373 14.904500 12.792800 33.893900
258  1  0.6921 14.417800  4.274780 31.948000
259  1  0.7323 13.901700 18.915500 34.875800
260  1  0.6898 13.036700 21.744500 31.670600
261  1  0.2256 17.426400 10.552100 31.525400
262  1  0.4848  3.011760  3.205210 29.346100
263  1  0.7377  2.331340  5.643280 37.011500
264  1  0.6972  7.028020  2.397520 35.538800
265  1  0.5260  2.276230  8.282010 30.992900
266  1  0.0588 -0.111117 15.337700 35.390100
267  1  0.6819  2.156520  9.785780 25.505600
268  1  0.6066  6.363850 12.973500 38.882500
269  1  0.7739  9.565320 18.218900  2.034870
270  1  0.0948  2.294100 16.118800 36.299000
271  1  0.5935  2.318770 21.363500 28.608400
272  1  0.7551  4.137530  2.414630 32.948700
273  1  0.4088 12.331700 12.268500 35.819900
274  1  0.5190 11.326500 15.311300 29.128000
275  1  0.3425 15.728200 16.035800 32.437500
276  1  0.4861  1.930950 17.209500 31.654400
277  1  0.3648  5.537890 15.574000 30.488500
278  1  0.5330 -0.029372 19.823800 39.781700
279  1  0.5832  8.412770 21.962400 32.309300
280  1  0.3650  4.800550  7.720890 39.915000
281  1  0.1439 -0.255945 16.741700 38.002400
282  1  0.6345 16.789700 20.423000 31.935400
283  1  0.7729  8.015700 20.071400 35.629800
284  1  0.3473  1.452470 19.652500 21.895000
285  1  0.1293  2.240240 11.391900 32.827000
286  1  0.6178  1.398510  6.200610 40.209400
287  1  0.5594 15.860800 21.267300 28.815300
288  1  0.3279  5.809230 12.681800 31.505300
289  2 -0.7603 15.424500 12.953100 38.098400
290  2 -0.6788 15.565600  3.709600  7.427090
291  2 -0.8136  2.796350  5.102160  0.533800
292  2 -0.4184 11.567600 14.591300 34.516500
293  2 -0.6710  8.194460 17.597100 41.243500
294  2 -0.6186  3.325120  0.973561  0.906554
295  2 -0.6986  4.640530  5.530060 38.680700
296  2 -0.5966 -0.247668  4.667250  2.917290
297  2 -0.5701  0.057598 15.974300  2.480890
298  2 -0.7546  9.899300 16.420000  4.441480
299  2 -0.7499  4.955000 13.303000  3.569360
300  2 -0.5842 12.377800 19.709600  1.625930
301  2 -0.7507  4.862970 18.874600 39.905800
302  2 -0.6485 10.672600  8.240290 38.877500
303  2 -0.8973 14.798000  4.593800 40.341900
304  2 -0.7224  7.149470 11.710100  1.111120
305  2 -0.5296 13.944100 16.476600  0.714659
306  2 -0.4095 10.934900 18.277500 35.449600
307  2 -0.5799 14.831000 20.428700 38.945700
308  2 -0.6546 14.695300  8.832030  5.663930
309  2 -0.6792 10.957200 12.873200 38.156000
310  2 -0.4409 12.344100  8.656250  0.421036
311  2 -0.4499  9.420830 20.658400 40.392900
312  2 -0.6815 15.439100  8.277100 38.553400
313  2 -0.6842  0.399960 18.393900  5.465080
314  2 -0.6027 15.507700 21.456700  9.088560
315  2 -0.6066  0.357306 12.612000 40.928000
316  2 -0.6402  1.127410  0.668402  4.925220
317  2 -0.5798  9.136690 15.403200 39.406200
318  2 -0.6001 15.273800  1.665210  1.484080
319  2 -0.7564 11.984500  1.302700 40.943500
320  2 -0.5919  8.594040  4.664570  4.932750
321  2 -0.8128 10.034600  7.786720  2.431050
322  2 -0.6419 11.865400 13.315200  1.161940
323  2 -0.6514 15.729400 18.660000  2.423040
324  2 -0.6817  2.950120 19.020500  2.730090
325  2 -0.4722  8.185960 21.958200  7.033800
326  2 -0.7220  5.625090 21.082600  3.699920
327  2 -0.7169 14.438900  5.737700  2.391980
328  2 -0.6451 13.466200 10.972100  3.544060
329  2 -0.6632 14.270500 15.918400 36.888300
330  2 -0.8549  1.401880  3.988050  8.296380
331  2 -0.5232 12.170700  4.621560  5.799820
332  2 -0.7970 10.532300  2.006280 12.428000
333  2 -0.5829 11.273300  9.710380  7.886480
334  2 -0.6482 10.865500 14.105300  8.059390
335  2 -0.7135  8.501980 20.250300  2.383030
336  2 -0.7476  0.409451  6.935170 35.519800
337  2 -0.6588  6.263450  5.574750  7.238140
338  2 -0.7245  4.902530  2.098190 12.673000
339  2 -0.5673 10.018100 10.175200 13.077100
340  2 -0.6066 16.016100 12.676000  4.911190
341  2 -0.6638  5.449310  1.540470  6.377440
342  2 -0.6600 11.176200 22.024600  8.419260
343  2 -0.8450  1.731340  1.554480 10.748900
344  2 -1.0290  4.726690 11.229600 14.812800
345  2 -0.7880 16.903800  2.672580 12.596300
346  2 -0.5863 15.984500 17.288300 13.118200
347  2 -0.4520  1.488420 13.035900  2.434810
348  2 -0.6729 16.380300 14.656000  7.642450
349  2 -0.6084  9.649270 20.244100 12.039700
350  2 -0.6433  6.034310  0.494780 40.881800
351  2 -0.6746 10.608800  5.439260  8.594780
352  2 -0.6541 10.236700 18.223100  7.371210
353  2 -0.6565 13.423800 15.500200  3.985870
354  2 -0.7865 16.660900 13.847800 15.507900
355  2 -0.4334 13.141900  8.045100 10.434500
356  2 -0.6199 13.673000  6.597000 13.504000
357  2 -0.5825  8.105460 14.383100 10.683900
358  2 -0.6557 12.635900 12.395800 13.169800
359  2 -0.6632 16.446400 21.034100  5.520670
360  2 -0.6572  6.084330  4.974940 14.374400
361  2 -0.5987  8.841260 13.339100 20.668500
362  2 -0.7175  6.957380 20.759300 14.469900
363  2 -0.7760 16.396000 10.148300 13.611700
364  2 -0.6044  2.246190 14.105200 11.604700
365  2 -0.8898 12.426600 11.279700 17.591400
366  2 -0.9110 11.125400  9.312510 21.185500
367  2 -0.9219  3.758580 15.581500  8.463260
368  2 -0.6633  3.342760 16.385700 15.123800
369  2 -0.7726 15.175100  7.099950 18.003800
370  2 -0.4141  9.931240  5.525580 13.801800
371  2 -0.4146 13.559900 11.625100  9.597560
372  2 -0.7086 13.281400 19.978400 10.713700
373  2 -0.9759  3.264300 20.795600  7.959990
374  2 -0.5474 10.233500  1.428180  4.467510
375  2 -0.5532 10.644600  2.561080 18.651100
376  2 -0.7759  8.155520  7.825920 10.211100
377  2 -0.7898 15.387900 17.535000  7.568450
378  2 -0.6478 15.063300 15.408900 10.558100
379  2 -0.7155 13.417100  3.720200 10.856100
380  2 -0.7810  0.530441  8.859480 18.719800
381  2 -0.8666 12.918900  5.259590 20.602300
382  2 -0.6057 15.161900 10.578700 23.166800
383  2 -0.5870 17.524400 18.572300 10.438700
384  2 -0.7094 15.234500 20.313400 17.085000
385  2 -0.6684 12.271400 20.393600 15.432000
386  2 -0.6236  7.465020  1.099070 22.166000
387  2 -0.8323  9.308670  5.035210 21.724500
388  2 -0.5793 12.031600  3.732110 15.375300
389  2 -0.7089 12.484000 13.192300 21.113500
390  2 -0.6709  7.454080 19.368000  9.652420
391  2 -0.9401  2.816540 19.855100 12.367700
392  2 -0.6174 -0.359387  7.265020 22.442300
393  2 -0.6089 17.033100 13.014500 21.640000
394  2 -0.6550  8.477460 16.715500 22.874200
395  2 -0.7009  4.872150 16.821900 25.752200
396  2 -0.6180 15.203500 21.589300 13.021000
397  2 -0.7868  7.123730 16.251500 15.492300
398  2 -0.8313  7.153060  2.222250  9.416900
399  2 -0.4797  7.211840 10.012400 22.248900
400  2 -0.8209  0.645041 15.901100 19.780900
401  2 -0.8814  8.107490 10.318900 17.251300
402  2 -0.4362 16.402700 17.008800 25.553400
403  2 -0.6731 16.490400  3.008000 15.823500
404  2 -0.6357 11.796800 20.495200 20.216700
405  2 -0.5784 10.000500 16.539200 12.361300
406  2 -0.8032 13.188100 16.300600 14.743200
407  2 -0.6208  8.644230  2.925020 16.087100
408  2 -0.5944 15.380000  3.112980 19.428000
409  2 -0.6098  4.297280 14.056900 21.768500
410  2 -0.5724  2.067820 14.612200 25.233500
411  2 -0.7066 11.738400  9.786600 24.946700
412  2 -0.6725  4.991020 10.358800 19.593900
413  2 -0.7746  2.114650 11.343900 22.967400
414  2 -0.4791 11.041200 21.837400 23.384700
415  2 -0.7098 13.217600  2.333850 23.400000
416  2 -0.7785  1.186290  5.071870 19.432700
417  2 -0.8097  5.748570  7.069690 20.975900
418  2 -0.5980 11.087700 12.273600 28.591700
419  2 -0.6649 13.032700 18.400600 24.403300
420  2 -0.7616  6.172190  3.182630 25.739600
421  2 -0.7384  5.149890 18.246600 17.266800
422  2 -0.8654 12.600600 20.989400 28.955900
423  2 -0.3388  9.814250  3.202820 24.575800
424  2 -0.4703 14.502900 15.063100 23.304200
425  2 -0.6037 14.880500 18.719300 27.857500
426  2 -0.7446  3.190620 19.598300 23.939800
427  2 -0.8983  6.266980 21.878700 27.062100
428  2 -0.6338  3.661020  5.691750 31.839500
429  2 -0.2459 13.776500  1.683670 17.421500
430  2 -0.5061 14.187700  5.896150 23.942000
431  2 -0.5715 10.293800 13.662900 24.931500
432  2 -1.0140 16.492800 20.544100 22.519500
433  2 -0.6269  2.997390  7.178380 28.825000
434  2 -0.7563  3.667930  0.474084 30.819700
435  2 -0.3648  6.816140 12.904900 24.632200
436  2 -0.5794  5.031280  9.944830 25.253800
437  2 -0.5835  2.562470 18.597700 27.957200
438  2 -0.6303 13.988000 18.658900 32.036700
439  2 -0.6694  4.057290  3.510190 22.746700
440  2 -0.8138  1.142880  3.185810 27.581600
441  2 -0.6989  6.503430  2.724710 31.278600
442  2 -0.5655  5.930540  6.457190 26.635200
443  2 -0.9224  8.030060 18.686100 28.963800
444  2 -0.7522 11.410000 16.410500 20.276500
445  2 -0.7030  5.273150  0.337222 35.698200
446  2 -0.6168  9.119930  2.133850 28.904500
447  2 -0.6739  9.980710  6.680720 25.316900
448  2 -0.7149 14.118200  7.065840 33.221200
449  2 -0.6733 17.279300  3.534170 23.475300
450  2 -0.3899 13.707300 21.469100 35.324700
451  2 -0.7322  6.068780 19.197300 21.910700
452  2 -0.5961 13.376900  9.274930 27.979000
453  2 -0.7306 16.812000  5.130240 30.648100
454  2 -0.3898 16.612900  6.651090 27.093800
455  2 -0.5859  0.172283 19.815400 29.525300
456  2 -0.5927 14.959400  3.795760 28.568200
457  2 -0.7296 17.308400 10.878100 26.122600
458  2 -0.4795 10.226900 19.738900 32.091200
459  2 -0.7117  7.309350 18.629000 33.273600
460  2 -0.6836  5.045100 13.042800 27.713000
461  2 -0.6498  1.979050 19.867400 32.553300
462  2 -0.9623  3.289950 14.903200 32.534300
463  2 -0.7647  1.135050 10.222300 29.049600
464  2 -0.7708 -0.096917 20.868500 26.197900
465  2 -0.7330 11.795100  6.610570 35.911200
466  2 -0.4244  6.060500  4.614200 34.321300
467  2 -0.8981  8.562680 15.221700 28.236100
468  2 -0.5204  8.049840 14.515300 34.291000
469  2 -0.4218 11.898800  2.090520 26.372500
470  2 -0.5446  2.677940  3.894190 35.164800
471  2 -0.5665 10.633900  6.331260 28.508200
472  2 -0.7724  6.521760  9.097160 28.735700
473  2 -0.7311  8.482240 19.896100 25.704300
474  2 -0.7179 15.878800 14.125100 27.484100
475  2 -0.6639  8.077640 22.058000 37.822200
476  2 -0.5715 15.738900  1.758300 32.414900
477  2 -0.7401 16.772500  8.084970 32.267400
478  2 -0.3801  2.710670  6.640290 25.066800
479  2 -0.6725  1.627110 15.024500 28.922400
480  2 -0.6404 13.325500 14.906300 31.646500
481  2 -0.4501 13.550100 11.034700 40.430000
482  2 -0.8089  5.554630 11.523400 34.003200
483  2 -0.5528  6.090680  7.626060 33.921500
484  2 -0.7856  3.911100 11.650200 39.495800
485  2 -0.7262  5.187810 14.912500 40.099400
486  2 -0.5585 17.466900 20.588300 36.178900
487  2 -0.5751  0.167867 21.204600  0.565471
488  2 -0.5271 16.001800  1.909700 38.258000
489  2 -0.7030  1.149840  8.783950 39.212000
490  2 -0.8070  8.451510 10.627200 38.113200
491  2 -0.4940 11.833500 17.949900 39.726600
492  2 -0.6154 13.227600  1.547270  5.491860
493  2 -0.7267  5.962930 18.852300 36.563300
494  2 -0.6225  7.167310  7.409840 37.447400
495  2 -0.5876 12.391800  2.334590 32.542300
496  2 -0.6752 16.753700  9.362000  0.118835
497  2 -0.6942  1.380750  3.648070 38.824100
498  2 -0.7180  1.292270 17.003000 41.253600
499  2 -0.6792  2.415470 21.222600 38.748800
500  2 -0.7502 10.709200  4.335460 38.096600
501  2 -0.5588 10.196900 21.553000 34.911600
502  2 -1.0491 10.519800  9.109840 32.458200
503  2 -0.3867  0.924891  1.604690 32.996700
504  2 -0.6338  9.655870  3.225440 34.679600

