Generated by pymatgen.io.lammps.data.LammpsData

320  atoms

  2  atom types

0.000000 16.864293  xlo xhi
0.000000 23.165087  ylo yhi
0.000000 24.472453  zlo zhi

Masses

1  208.9804
2   78.9600

Atoms

1    1  0.7980  0.655541 10.647700 10.677400
2    1  0.7835  0.858181 10.830500 23.413300
3    1  0.7729  1.198150 22.573100 10.651900
4    1  0.8219  1.111160 22.577600 23.083900
5    1  0.8304  5.629200 11.009600 10.211200
6    1  0.8549  4.967560 10.950600 22.653900
7    1  0.8564  4.976430 22.535700 10.645200
8    1  0.8274  5.147380 22.579900 23.323800
9    1  0.8389  9.271150 12.143600 10.250700
10   1  0.8215  9.762970 10.528900 22.751600
11   1  0.8016  9.089410 22.597400 11.092500
12   1  0.8105  8.650940 22.598000 23.503800
13   1  0.8903 13.269000 11.429100 11.021300
14   1  0.7811 13.775000 10.404100 22.903000
15   1  0.7754 12.898700 22.628100 10.809500
16   1  0.8440 13.719600 22.833900 22.919400
17   1  0.7792  3.170970  0.728539  2.852040
18   1  0.7623  3.210970  0.468315 14.794200
19   1  0.7956  3.011120 11.765500  2.389060
20   1  0.7927  2.824780 11.969300 14.823100
21   1  0.8732  6.875430 -0.224194  2.888970
22   1  0.8602  7.181060  0.509742 14.338400
23   1  0.8189  7.359760 11.520700  2.774080
24   1  0.8504  7.276560 12.121800 14.866200
25   1  0.7684 11.519700  0.443368  2.823830
26   1  0.8165 11.589100  0.013900 14.478300
27   1  0.7354 11.250300 11.339600  2.194530
28   1  0.7957 11.597000 11.198100 15.066400
29   1  0.8091 15.526300 -0.383621  2.766830
30   1  0.8331 16.135200 22.869000 14.248400
31   1  0.7646 15.098900 11.540700  2.623120
32   1  0.8363 15.677400 11.737800 14.041400
33   1  0.8489  2.938030  5.004560  8.383580
34   1  0.8690  2.950420  4.842410 20.985800
35   1  0.8334  2.918150 16.315500  8.408780
36   1  0.8440  2.877840 16.836200 21.248700
37   1  0.7842  7.440900  5.310040  8.740040
38   1  0.7516  7.508500  5.078130 21.112300
39   1  0.8820  7.181960 16.689400  9.232430
40   1  0.8104  7.178110 16.465200 21.505600
41   1  0.8320 11.434400  5.294700  8.670790
42   1  0.7757 11.794300  5.430810 20.830400
43   1  0.7975 11.552800 15.674800  8.915490
44   1  0.8651 11.596900 16.834500 21.207500
45   1  0.8117 15.666600  5.529560  9.111390
46   1  0.7802 15.968100  5.144560 21.458500
47   1  0.8298 15.434200 17.153800  8.709100
48   1  0.8120 15.637600 17.398000 20.907300
49   1  0.9243  1.358650  6.026710  4.743680
50   1  0.8155  1.296280  5.855110 17.311600
51   1  0.8212  0.929015 18.130000  5.026480
52   1  0.8362  0.582469 17.861100 17.646300
53   1  0.8375  4.857700  5.882590  4.157210
54   1  0.7767  5.247430  6.141900 16.696900
55   1  0.8688  4.931210 17.720100  4.811890
56   1  0.9210  5.270550 17.819900 17.005000
57   1  0.8385  9.536660  5.361050  4.900030
58   1  0.8647  9.313480  6.104180 17.201200
59   1  0.7982  8.643270 17.300100  4.561140
60   1  0.8438  9.878710 17.998300 17.710100
61   1  0.8274 13.514500  6.015600  5.125040
62   1  0.8398 13.388800  6.003180 16.911300
63   1  0.8901 13.206600 17.885600  4.823730
64   1  0.8674 13.945700 17.821200 17.142000
65   1  0.8200  0.670233  1.643160  6.123940
66   1  0.8529  0.875248  1.382510 18.635900
67   1  0.8067  0.785515 13.138300  6.786500
68   1  0.8005  0.996570 12.863600 18.367100
69   1  0.8153  4.463360  1.601630  6.165100
70   1  0.7784  4.925290  1.195040 18.504400
71   1  0.8232  4.517650 13.270400  5.659000
72   1  0.8028  4.985170 13.465200 18.717900
73   1  0.7864  9.699820  1.985140  5.891320
74   1  0.7915  9.503240  2.065240 18.527600
75   1  0.7744  9.437060 13.222400  6.463630
76   1  0.8168  9.598230 13.765900 17.841500
77   1  0.8467 13.501600  1.031810  5.964170
78   1  0.8290 14.155000  2.386390 18.799300
79   1  0.8808 13.656600 13.441100  6.239280
80   1  0.8251 13.846300 13.336700 18.205100
81   1  0.8268  3.506180  9.246280  7.002380
82   1  0.8861  3.402280  9.071400 18.776600
83   1  0.7846  2.314430 20.968900  7.185410
84   1  0.7911  3.312720 20.938500 19.461800
85   1  0.8123  7.416180  9.996210  6.651810
86   1  0.8116  7.118750  9.923380 19.101300
87   1  0.8352  7.216520 21.136000  6.518940
88   1  0.7771  7.611070 21.164600 19.228300
89   1  0.8355 11.761500  9.151450  6.953240
90   1  0.7850 11.890000  9.507910 19.280700
91   1  0.8382 11.035300 21.159200  6.358900
92   1  0.8400 11.538900 21.301300 19.269300
93   1  0.8082 15.663000  8.916510  7.511830
94   1  0.8491 15.620800  9.109950 19.091900
95   1  0.8277 15.457000 21.142800  6.434570
96   1  0.8245 15.946700 21.377300 19.188200
97   1  0.8118  3.511990  7.488010 13.155200
98   1  0.7804  2.814570  8.115920  1.139470
99   1  0.8696  3.159770 18.977900 13.011900
100  1  0.7957  3.058670 18.978700  1.141670
101  1  0.7582  7.279450  7.581620 12.358800
102  1  0.7877  7.061680  7.914730 24.918200
103  1  0.8287  7.309220 19.039600 13.020000
104  1  0.7685  7.084690 18.906700  0.900623
105  1  0.7981 11.067100  7.972880 13.242400
106  1  0.8787 11.438100  6.864850  0.576271
107  1  0.7621 11.491600 19.349000 13.079600
108  1  0.7937 11.222500 19.122300  0.613907
109  1  0.8684 16.110400  7.089210 13.036700
110  1  0.7993 15.672200  8.097390  0.780852
111  1  0.8344 16.035300 18.958000 12.354500
112  1  0.8582 15.440300 19.677800  0.038850
113  1  0.8501  0.948304  3.332030  0.512952
114  1  0.8622  1.143290  3.548100 12.428700
115  1  0.7774  1.228170 14.305400 24.365600
116  1  0.7754  1.088760 14.963800 11.894600
117  1  0.8409  4.919890  3.878200  0.499458
118  1  0.8087  5.846500  4.256550 12.296300
119  1  0.7717  5.217050 14.912600  0.212896
120  1  0.8056  5.082690 15.603800 12.672100
121  1  0.8503  9.361150  3.514350 24.022800
122  1  0.7517  9.520770  4.238270 11.661100
123  1  0.7282  9.257140 14.673600  0.543812
124  1  0.7531  9.366360 15.447000 12.830100
125  1  0.8305 13.709700  3.838940  0.697280
126  1  0.8215 13.677400  3.032440 12.313700
127  1  0.7992 13.604800 15.244900 -0.189209
128  1  0.7890 13.513800 15.498800 11.934800
129  2 -0.4435  0.739828  3.043070  9.030190
130  2 -0.4676  1.074150  3.093910 21.667400
131  2 -0.6369  0.758643 14.762400  9.078390
132  2 -0.4717  0.976521 14.686700 21.225600
133  2 -0.4524  5.297840  3.522010  9.359640
134  2 -0.4397  5.321010  2.930220 22.168500
135  2 -0.4915  5.407380 14.900300  9.552670
136  2 -0.5263  4.570160 14.483400 21.775000
137  2 -0.5754  9.531420  3.118770  8.986070
138  2 -0.5890  9.693230  3.026780 21.254400
139  2 -0.6687  9.065810 14.725100  9.508540
140  2 -0.4015  9.426740 14.481000 21.864900
141  2 -0.4521 13.706600  3.547760  9.016720
142  2 -0.5442 13.739700  3.468860 21.523300
143  2 -0.6298 13.776900 14.821300  9.355980
144  2 -0.4901 13.655000 15.234100 21.044800
145  2 -0.5697  2.953930  8.032820  4.129780
146  2 -0.5814  3.155700  7.924210 16.235600
147  2 -0.5469  3.031120 19.598500  4.120570
148  2 -0.4578  2.824120 19.220700 16.648000
149  2 -0.4162  7.385920  7.427830  3.477190
150  2 -0.4983  7.292340  8.034560 16.283800
151  2 -0.5977  6.796080 19.557400  4.325570
152  2 -0.5046  7.122300 19.522800 16.627400
153  2 -0.5436 11.342000  7.141780  4.134320
154  2 -0.5698 11.516700  7.939700 16.533500
155  2 -0.5062 11.195900 19.340600  3.867340
156  2 -0.5414 11.681000 19.683900 16.900100
157  2 -0.4390 15.821200  7.837900  4.458430
158  2 -0.4369 15.637500  7.922830 16.179300
159  2 -0.4671 15.592400 19.606400  3.644940
160  2 -0.5316 15.359300 19.884100 16.702900
161  2 -0.4716  3.011820  9.108010 10.178100
162  2 -0.4003  3.144720  8.877390 21.894500
163  2 -0.5304  3.133390 20.509900 10.532200
164  2 -0.4995  3.568290 20.533600 22.541500
165  2 -0.4997  7.770610  9.096270  9.824840
166  2 -0.5205  7.161750  9.008090 21.954100
167  2 -0.4858  7.310950 21.070800  9.864230
168  2 -0.5428  7.300150 20.687600 22.394700
169  2 -0.4234 11.110800  9.794460  9.844030
170  2 -0.5685 11.809500  8.611420 22.277200
171  2 -0.4115 11.009000 20.548700  9.582730
172  2 -0.4537 11.397100 20.979100 22.360700
173  2 -0.5509 15.176800  9.067450 10.098900
174  2 -0.6523 15.901100  9.056080 22.515700
175  2 -0.4882 15.424200 20.981300 10.338500
176  2 -0.6116 15.622900 20.544700 21.776700
177  2 -0.5856  0.843671  2.210120  2.942280
178  2 -0.4887  0.663155  2.147700 15.164700
179  2 -0.4341  0.420072 13.400700  3.708010
180  2 -0.5255  0.539269 13.697200 14.914400
181  2 -0.5354  5.428570  2.372280  3.253940
182  2 -0.4706  5.421170  2.379620 14.888300
183  2 -0.5414  5.121790 13.679500  2.720890
184  2 -0.5368  5.427820 13.912000 15.396400
185  2 -0.4731  9.119630  2.089770  3.146050
186  2 -0.4085  9.068750  2.295040 14.887000
187  2 -0.5886  9.031970 13.487200  3.699160
188  2 -0.5391 10.108100 13.609400 15.026700
189  2 -0.5640 13.797600  2.244890  3.275910
190  2 -0.4760 13.727800  1.714280 14.920200
191  2 -0.3796 13.947700 14.400100  3.335960
192  2 -0.4459 13.461600 13.560700 15.188400
193  2 -0.4563  0.742966 10.392200  5.732410
194  2 -0.5327  1.222820 10.621000 17.076400
195  2 -0.6983  0.677129 22.279500  5.084100
196  2 -0.6602  1.101950 22.073800 17.773500
197  2 -0.6170  5.629630 10.731400  4.678710
198  2 -0.6250  5.201220 10.706600 17.475200
199  2 -0.5708  4.730400 22.330200  4.896540
200  2 -0.5901  5.198630 22.712300 16.631800
201  2 -0.5667  9.817420 10.487700  5.161960
202  2 -0.5587  9.507160 10.903800 17.245600
203  2 -0.6122  9.053230 22.324000  4.689660
204  2 -0.5074  9.429740 22.300500 17.270000
205  2 -0.5358 13.742000 10.701000  5.332440
206  2 -0.5728 13.950900 10.398700 17.290500
207  2 -0.7109 13.240300 22.124900  4.535460
208  2 -0.4540 13.509100 22.826400 17.732200
209  2 -0.6278  3.023990  0.353079  8.010440
210  2 -0.5437  2.872790  0.525901 20.661600
211  2 -0.5950  3.238700 11.832100  7.960820
212  2 -0.5093  2.944840 11.759100 20.216400
213  2 -0.4160  7.167890  0.931366  7.529800
214  2 -0.5901  7.051600  0.617842 20.294600
215  2 -0.6052  6.952540 12.263000  7.801300
216  2 -0.5471  7.070880 12.861800 19.943600
217  2 -0.5520 11.540000  0.469280  7.737570
218  2 -0.4274 12.031500  0.878054 20.750000
219  2 -0.5586 11.803700 12.512100  8.007930
220  2 -0.4922 11.691000 12.507700 19.767800
221  2 -0.5378 15.467000  0.483915  7.724200
222  2 -0.5375 15.908400  0.641985 20.715000
223  2 -0.4665 15.153700 11.935700  8.352460
224  2 -0.4957 15.889000 11.870400 20.235400
225  2 -0.6425  3.015570  5.256700  2.042200
226  2 -0.5442  3.395080  4.753230 14.083700
227  2 -0.4864  2.913240 15.821500  1.877470
228  2 -0.5255  3.435190 16.636800 14.382900
229  2 -0.4733  7.321630  4.621370  1.293560
230  2 -0.5965  7.826730  5.185680 13.859600
231  2 -0.6028  6.796580 16.500700  2.425690
232  2 -0.5762  7.099440 16.922300 14.530300
233  2 -0.5658 11.126700  4.407160  1.593940
234  2 -0.4140 11.553800  5.013190 14.030300
235  2 -0.4725 11.297700 16.214900  2.330630
236  2 -0.4631 11.936200 16.544000 14.559700
237  2 -0.4758 15.636800  5.168230  2.159150
238  2 -0.4647 15.730500  4.825190 14.449900
239  2 -0.3314 15.862300 16.620100  1.635090
240  2 -0.5134 15.845000 16.678900 13.562400
241  2 -0.6469  0.671001  6.071100 11.144200
242  2 -0.4861  1.334810  6.307860 23.690600
243  2 -0.5350  1.451920 18.059900 10.892100
244  2 -0.4896  0.813056 17.844100 23.207500
245  2 -0.6509  5.127080  6.416990 11.033600
246  2 -0.4667  4.701790  6.509610 23.341400
247  2 -0.5479  5.200550 17.896800 11.037700
248  2 -0.5895  5.529650 17.706500 23.206200
249  2 -0.6293  9.894380  6.721480 10.972200
250  2 -0.5656  9.485060  6.347360 22.991500
251  2 -0.6058  9.069500 17.921300 11.218700
252  2 -0.5872  9.358290 17.280900 23.747300
253  2 -0.4523 13.698300  6.276540 11.582100
254  2 -0.5844 13.820300  6.141950 23.658300
255  2 -0.5554 13.656300 18.394200 10.802800
256  2 -0.5970 13.359200 17.923400 23.287600
257  2 -0.7174  0.649437 10.056200  1.662730
258  2 -0.5522  0.925621  9.265700 13.356800
259  2 -0.5590  0.710010 20.928400  1.064560
260  2 -0.6218  1.119210 20.998300 13.528100
261  2 -0.6269  5.096500 10.107700  1.257730
262  2 -0.4738  5.297770  9.811810 12.971200
263  2 -0.5862  4.890390 21.489200  1.365130
264  2 -0.5566  5.206910 21.205700 13.349600
265  2 -0.5781  9.670540  9.415980  1.079730
266  2 -0.5071  8.647540 10.325200 13.399500
267  2 -0.5496  8.865530 21.201600  1.659260
268  2 -0.6841  9.457450 21.282800 13.510100
269  2 -0.6483 13.134400  9.268520  1.188650
270  2 -0.6005 13.587400  9.952430 13.227200
271  2 -0.6060 13.756600 21.380400  1.125410
272  2 -0.6012 13.460000 21.129100 13.740600
273  2 -0.5260  3.156330  2.123930 11.759900
274  2 -0.5839  2.977300  1.489550 -0.097700
275  2 -0.5272  2.691840 12.277800 12.014500
276  2 -0.6950  3.202990 12.516500 24.081300
277  2 -0.5991  6.808220  1.023720 11.598300
278  2 -0.5522  7.023250  1.424670 24.658800
279  2 -0.5371  6.970710 13.337500 12.162500
280  2 -0.5252  7.462350 12.110200 -0.768686
281  2 -0.6965 11.506100  1.503620 11.927600
282  2 -0.5057 11.385500  1.288420 24.252600
283  2 -0.6211 11.187600 13.101600 11.835500
284  2 -0.5952 11.388300 12.671500 23.874500
285  2 -0.6284 16.289800  1.277790 12.095400
286  2 -0.5527 16.057300  1.337070 24.160800
287  2 -0.6128 15.526900 13.169900 11.869400
288  2 -0.6379 15.391300 12.927000 24.393200
289  2 -0.6717  3.018820  4.191800  5.752700
290  2 -0.6133  2.882810  3.618630 18.617000
291  2 -0.6238  2.947070 15.863900  5.872010
292  2 -0.4999  3.365880 15.568700 17.659300
293  2 -0.4696  7.117100  4.167420  5.964580
294  2 -0.5177  7.369700  3.983120 17.649900
295  2 -0.4847  6.276830 15.251800  6.127780
296  2 -0.5665  7.986150 16.118400 18.307200
297  2 -0.6568 11.912100  3.880300  5.999950
298  2 -0.6126 11.419900  4.202590 17.758200
299  2 -0.5834 11.832900 15.383800  6.078310
300  2 -0.5402 11.827900 16.005000 18.323100
301  2 -0.4593 16.071800  3.973620  5.955810
302  2 -0.6470 16.257900  3.649050 18.383300
303  2 -0.5004 15.497700 16.108100  6.176890
304  2 -0.6150 15.639200 15.943000 18.155800
305  2 -0.6137  1.246330  6.992590  7.085700
306  2 -0.5943  1.448350  7.350090 19.392200
307  2 -0.6565  0.598190 18.800000  7.682950
308  2 -0.6721  1.247520 18.538700 20.046300
309  2 -0.5334  5.192040  7.173410  7.021220
310  2 -0.5303  5.129950  6.816370 19.644200
311  2 -0.4854  4.901010 18.726600  7.414730
312  2 -0.5316  4.866060 18.706400 19.631800
313  2 -0.5511  9.227300  7.143960  7.356710
314  2 -0.5680  9.399280  7.376030 19.528200
315  2 -0.4711  9.292590 18.508800  7.062870
316  2 -0.5414  9.439390 19.115600 20.289800
317  2 -0.6708 13.304700  7.085830  7.976100
318  2 -0.6909 13.752500  7.262060 19.460400
319  2 -0.5854 13.609800 19.529900  6.968940
320  2 -0.5676 13.185300 18.931800 19.999000

