Generated by pymatgen.io.lammps.data.LammpsData

504  atoms

  2  atom types

0.000000 17.774667  xlo xhi
0.000000 21.986255  ylo yhi
0.000000 41.650458  zlo zhi

Masses

1  208.9804
2   78.9600

Atoms

1    1 -0.0116  2.741730  7.389980  8.418980
2    1  0.5882 17.148500  0.846243  5.189710
3    1  0.7248  9.233200  0.084232 13.279600
4    1  0.0185  0.059840 14.752300  9.951020
5    1 -0.0146  1.320660  4.629670 14.674100
6    1  0.3444  2.728010  1.562900 10.256100
7    1  0.8584  9.799820  8.168310 11.862200
8    1  0.4952  3.179820 12.254900 16.102300
9    1  0.4326 15.237700 17.455100 10.744000
10   1 -0.0091  1.943940 10.383100 12.472400
11   1  0.7533 12.665700  9.278160  5.294470
12   1  0.5650  0.625261 17.264800 13.823500
13   1  0.2060  0.567712  4.014290 11.958600
14   1  0.1726  3.628670  6.372870 15.029800
15   1  0.3725  4.693610  9.227970 13.586700
16   1  0.1393  5.930950  2.257210 13.252000
17   1  0.7590 13.240900 20.315700 13.270500
18   1 -0.0547  2.677110  0.456685 16.752000
19   1  0.7942 12.271900 16.274600 15.115900
20   1  0.8644  9.810410  8.178940 17.496200
21   1  0.5837  9.373940 21.084400 23.880100
22   1  0.8100  8.498070 18.015800 13.624300
23   1  0.5146  9.050760  3.149540 13.209700
24   1  0.3526  8.196300  2.480000 15.877900
25   1  0.7346  1.319660 17.084600 35.834800
26   1  0.5552 15.682900 19.904300  3.408180
27   1  0.2082  3.647990  8.355070 37.864000
28   1  0.5459  7.097340 20.998000  2.046880
29   1  0.1583  4.122000 15.986500  5.467400
30   1  0.5745  2.562220 21.245400  8.460640
31   1  0.6311  5.563880  4.592160  3.282640
32   1  0.2786  2.267330  7.806510  1.015350
33   1  0.5080 14.115300 10.113800 40.707500
34   1  0.1617  4.020290  9.771020  7.368550
35   1 -0.0820  0.498367  5.357400 37.494600
36   1  0.1533 17.157100 10.004500 40.470400
37   1  0.5637 14.122700 21.032300 29.107400
38   1  0.3851  4.924030  8.467370 40.885600
39   1  0.8059 12.462400  2.694850  7.325950
40   1  0.4683  7.212860 12.186400  9.527710
41   1  0.3485  9.260760  6.790020 39.665300
42   1  0.7512  4.585560 15.092400 35.274300
43   1  0.8166 11.267600  2.177820 39.129400
44   1  0.1158 -0.266097  2.184750 37.035200
45   1  0.4057 14.282000 19.876700  6.931310
46   1  0.6634 16.568600  0.290777  0.894581
47   1  0.0662 16.497300 18.152100  5.915290
48   1  0.7894 13.958400  2.859700  1.607270
49   1  0.1399 -0.257524  7.278160  7.707600
50   1  0.3613  6.058330  4.154920 19.130500
51   1  0.4611  4.171730 10.640400  1.858940
52   1 -0.0413  0.862931 10.056600  7.560430
53   1  0.8570 11.883900 11.183100 10.906000
54   1  0.7288  3.294820  1.438170  5.834780
55   1  0.2106  1.474830 11.815000  4.310590
56   1  0.2067 16.030000 11.279400 17.086100
57   1  0.3954  5.866620  2.864260 10.314900
58   1 -0.0783 16.892800 15.721400  7.088530
59   1  0.7137  1.790770 18.810900  1.420890
60   1  0.7359 12.678900 15.181100  0.810653
61   1  0.7460  8.526330  2.845320  4.848870
62   1  0.6699 10.110800 18.527400  3.176320
63   1  0.5248 16.112600  6.738210 10.486400
64   1  0.4876  3.060590  8.132120 30.782500
65   1  0.0563  3.793040 10.024600 10.433900
66   1  0.8122  0.765289 13.793100 37.745900
67   1 -0.0206  2.095500 14.285700  6.755740
68   1  0.5719 14.550400 18.199400  0.466060
69   1  0.0273  2.889770 13.819000 10.199300
70   1  0.0283  1.350480  7.363400 39.935600
71   1  0.8024 10.450900  5.595660  2.930470
72   1  0.3373 -0.232792 13.250000 12.432700
73   1  0.0066  8.600600  6.327340 36.538800
74   1  0.6709  6.972670 21.409900  6.194660
75   1  0.1327 17.288500 11.844900  9.857820
76   1  0.7542 10.295800  7.464120  7.407280
77   1  0.7555 12.384800  5.260340 10.691900
78   1  0.1897  1.753230  8.932710 15.246300
79   1  0.1742  4.665150 12.513500 11.607300
80   1  0.3023 14.988500 13.816400  8.522500
81   1  0.5877  9.735650  9.660430  0.091736
82   1  0.7023  8.250710 15.413900  1.253890
83   1  0.4033  7.314340  3.358020 37.699300
84   1  0.6446 13.017900 14.004600  5.593900
85   1  0.2961 -0.593324  8.008750  4.544800
86   1  0.7732  3.505420  0.218256  2.731490
87   1  0.3100  2.976100  5.997190  3.886870
88   1  0.3547 15.960200 10.098100  6.887300
89   1  0.3954  0.453702  1.574340  8.477460
90   1  0.2007  4.454360 12.664100  7.803350
91   1  0.1450  2.553790 18.906500 20.367700
92   1  0.8331 13.714300  0.475879 10.231300
93   1  0.3330  0.505633 14.599100  3.141150
94   1  0.4354 16.294500 10.710300  2.126960
95   1  0.6412  7.689140 10.465300  6.947980
96   1  0.2099 17.289600 20.721800  7.850060
97   1  0.7494  8.438500  9.047360 22.293400
98   1  0.4653  7.801890 18.322100 20.382000
99   1  0.1262  5.709470  4.395620 15.366000
100  1  0.4538  0.628578 11.450100 18.913600
101  1  0.6591  9.064620 11.169900 31.271000
102  1  0.2893  6.492620  3.606190 22.509700
103  1  0.3461  8.711430  1.809140 21.372300
104  1  0.2333 16.522200  3.314930 14.746800
105  1  0.3660  2.789600  1.009260 24.375200
106  1  0.4845  5.721250  3.253760 34.276300
107  1  0.4812 15.036300  7.700820 30.662700
108  1  0.6583  5.171610  4.890110 30.221100
109  1  0.5223  9.409370 16.280200 22.861800
110  1  0.5850 10.644600  6.000190 20.914800
111  1  0.3585 14.563100  2.076120 28.936300
112  1  0.7433 12.612600 15.482500 32.433000
113  1  0.7546 13.419800 13.437000 27.716900
114  1  0.6783 13.220700 12.431100 35.159500
115  1  0.8789 14.349000 17.521900 18.797500
116  1  0.8017 10.035200 19.666500 34.353800
117  1  0.5186  8.835920  1.679620 27.913900
118  1  0.0023  1.143480 20.618400 18.203900
119  1  0.6728 12.743900 10.284300 20.771200
120  1  0.8194 14.789900 10.680100 24.221200
121  1  0.5824  9.209520 14.797600  4.788140
122  1  0.1470  4.212950 20.492900 18.747100
123  1 -0.0741  3.384140  4.225630 12.321400
124  1  0.1477  1.629520  4.607130  8.926260
125  1  0.2328  6.610170 16.137200 18.946000
126  1  0.2089  6.067180  0.950661 23.902200
127  1  0.2507  3.780720 18.829800 16.246900
128  1  0.2506 17.320700  5.377280 16.844100
129  1  0.7368 13.642900  6.685810 13.753900
130  1  0.4509  8.493330 14.205300 16.922100
131  1  0.2792 15.679000 21.321400 17.804900
132  1  0.7919  9.853210 21.674400  9.264530
133  1  0.4691  5.880330  5.404490  7.514820
134  1  0.7591 12.546400 10.702900 15.318300
135  1  0.3401 16.333800  0.380089 14.354500
136  1  0.6139 11.284700 16.648000 11.098200
137  1  0.1080  2.771120  3.432500 17.202900
138  1  0.2414 14.047700 16.776700  7.794070
139  1  0.7333  0.885756 12.217100 22.716400
140  1  0.6161  9.525440 21.656500 17.611100
141  1  0.7650 12.991100 14.369700 23.003900
142  1  0.7016  2.966320  8.252980 21.170300
143  1  0.0013  3.262670  1.438630 14.007200
144  1  0.6902 13.750300  5.982450 18.517100
145  1  0.2813 15.473700  8.298400 17.336600
146  1  0.0172  0.974543  8.654230 10.537800
147  1  0.4951 11.179100  3.029730 22.696200
148  1  0.7167  4.961350 13.149700 23.022000
149  1  0.6192  3.679520 14.262000 19.585700
150  1  0.7820 15.356500  2.735110 24.279600
151  1  0.7416  5.465110 17.833700  9.848020
152  1  0.4383 14.010500  2.504670 16.730100
153  1  0.5643  7.215180 11.563500 35.002500
154  1  0.4651  7.117130  9.314960 26.962800
155  1  0.4715 12.826700 21.677500 16.626900
156  1  0.3552  6.180590  0.220808 26.573000
157  1  0.4058  9.525730  3.277460 18.896600
158  1  0.7232  4.514010 16.227000 25.422100
159  1  0.2778  0.159732 11.674700 15.130400
160  1  0.5268  8.417640 17.742400  6.662610
161  1  0.2632  5.515420  1.311770 20.852500
162  1  0.4982  0.119526 18.176700 19.230900
163  1  0.4956 10.786800 16.656800 19.468600
164  1 -0.0383 17.570800  1.442010 16.997000
165  1  0.5770  0.909608 16.140000 28.066400
166  1  0.1118 17.347100 17.961100  8.667340
167  1  0.5857  7.011320 14.393700 12.150400
168  1  0.2368  5.555070  1.220950 16.532000
169  1  0.7444  6.582430 16.010200 28.335700
170  1  0.7868  3.358870  5.572530 26.826300
171  1  0.5835  6.324630  7.116780 19.371900
172  1  0.6674  0.738919  8.536160 22.991700
173  1  0.6545  0.024075  4.518970 19.994000
174  1  0.3896  2.791620 16.889000 11.739400
175  1  0.3069  0.450068 20.983900 21.687700
176  1  0.5230  9.816710 11.615200 28.120800
177  1  0.4152  3.739020 12.518700 26.818100
178  1  0.4229 11.689000  1.394600 30.374300
179  1  0.2573  1.233560 20.573000 14.489200
180  1  0.0697  3.749200  7.259510 11.284000
181  1  0.6712 -0.196172 16.179100 22.261600
182  1  0.6977  8.852870  3.293810  9.235720
183  1  0.8291  9.144600 11.908800 14.137100
184  1  0.6556  7.026870 10.806300 18.617100
185  1  0.4536  5.530870 15.010500 15.712800
186  1  0.0444  2.691340  0.685567 20.097900
187  1  0.4481 15.689600  9.237040 20.131200
188  1  0.8508 10.817900  5.043480 15.564400
189  1  0.5555 14.990000 13.677000 19.008400
190  1  0.7237  1.541740  9.103310 26.608100
191  1  0.6064  4.793750 19.365100 13.506000
192  1  0.7022 14.891200 10.330800 12.727500
193  1  0.6430 10.326900 15.253600 35.269700
194  1  0.2514  0.795536 12.065400  0.691307
195  1  0.4262 16.551300  4.139490 39.979000
196  1  0.6671  3.038810 19.050000 38.351300
197  1  0.3754  4.397750  8.868810  4.710620
198  1  0.7139 12.305600 11.497500  2.005930
199  1  0.5069  7.937420  0.738050 35.480500
200  1  0.6192 12.102900 20.486300  1.528710
201  1  0.6622 13.297200 21.846300  5.339500
202  1  0.6680  7.578440 12.269200  3.142260
203  1  0.8297  9.085940 20.712000 38.322900
204  1  0.4799 14.689200 16.449500  4.367450
205  1  0.4678 10.966900  9.905330 38.709900
206  1  0.6959 10.276600  2.886640  0.617966
207  1  0.6094  0.050704  4.946440  2.938620
208  1  0.7311 10.948400 16.720800 39.236200
209  1  0.6607  9.330250 19.359600  0.287188
210  1  0.2292  1.676200 16.656300  4.739110
211  1  0.6940  6.590660  3.058930  0.693452
212  1  0.5600 12.421700 20.241400 31.216100
213  1  0.8511  9.824650 17.479000 30.026000
214  1  0.6565 16.083800 10.681700 32.463900
215  1  0.4442 15.134200  1.466980 38.236900
216  1  0.8843  1.920580  2.705680 30.165800
217  1  0.6215  0.677994 20.256100 34.051600
218  1  0.6514 14.894600 20.061300 23.233200
219  1  0.4619 -0.107361  6.844030 29.119600
220  1  0.5522  5.657430  0.082006 29.873800
221  1  0.1579  0.664784  4.039100 34.912300
222  1  0.8255  0.396404 19.871100 26.475600
223  1  0.6795 15.091600 19.301500 33.647900
224  1  0.8263 13.334000  7.393020 24.156700
225  1  0.2379  3.189560  4.407300 36.704300
226  1  0.3061  4.951170 11.076000 31.543400
227  1  0.7601 -0.485231 21.082200 30.390800
228  1  0.5365  2.551700  1.726580 38.140900
229  1  0.5670  6.421680  3.814030 26.426400
230  1  0.6758  2.204770  5.559490 32.415200
231  1  0.7069  6.074040  0.890184 39.182900
232  1  0.6885 10.211800 14.719300 26.205200
233  1  0.5783  5.903300  7.634400 24.672300
234  1  0.1721  8.980550  3.690370 34.926000
235  1  0.4900 11.481600 18.764500 23.004800
236  1  0.5224 14.331700  8.563040 34.049500
237  1  0.5739 11.554600  1.796510 25.702200
238  1  0.7769 17.302400 12.468100 27.025400
239  1  0.6038 14.748800 17.242300 29.879400
240  1  0.5737  8.994740  4.936290 24.829500
241  1  0.7528 14.526700 19.551300 37.572200
242  1  0.6973 16.088100  2.170270 32.227000
243  1  0.3994  4.398930  9.579290 34.172800
244  1  0.2660 15.989200  7.622530 38.963700
245  1  0.6966  7.175210 13.123100 38.556900
246  1  0.6522  5.600360 19.715200 41.163000
247  1  0.4166  4.287930 15.250900  2.684400
248  1  0.1976 17.524400  7.493380 35.835100
249  1  0.0698  2.321490 10.313100 40.944900
250  1  0.3309  7.199450  8.692720 38.172600
251  1  0.4177 12.871500  3.962770 27.983200
252  1  0.4978  6.186150  7.194940 29.860700
253  1  0.7857 12.157500  0.420786 35.618200
254  1  0.8771  7.071830 16.514900 32.538600
255  1  0.6671 12.940700 13.844800 38.500200
256  1  0.3604 15.703000  4.915030 29.624900
257  1  0.4610 14.713800  4.209650 33.585300
258  1  0.5956 11.081500  4.196870 32.920500
259  1  0.7302 17.440800 17.831100 39.778800
260  1  0.6213 12.986400 19.657900 25.815300
261  1  0.8333 11.650300  6.958870 28.657400
262  1  0.5948 17.017000  6.261330 25.717000
263  1  0.3395  7.628600  7.045680 33.978800
264  1  0.2237 15.368900  4.953000 36.822200
265  1  0.5828  1.941610 14.825200 30.636500
266  1  0.5301  3.505870 12.274200 38.706500
267  1  0.6860  1.888630  4.391700 23.204800
268  1  0.4291  5.926400 18.204300  5.028370
269  1  0.3369  6.754930 15.019200  6.490080
270  1  0.7232  7.401290 17.233000 37.519200
271  1  0.6594  3.451560 19.699400 28.196900
272  1  0.6236 12.362300 21.810100 20.240400
273  1  0.6819  7.362910 21.355300 32.064000
274  1  0.6897 10.224600  9.342910 34.106000
275  1  0.8509 16.838300 14.389700 33.331400
276  1  0.1251  3.472740 20.920600 22.295500
277  1  0.6328  8.482160 20.230900 27.518700
278  1  0.4665 17.211000 21.361700 38.250800
279  1  0.4202 11.683800  6.993480 36.943100
280  1  0.2146  2.717190  6.771720 35.701000
281  1  0.6718  5.229390 20.620200 35.147400
282  1  0.5941  2.079460  1.468060 34.325500
283  1  0.6454  3.488730 19.849200 31.728300
284  1  0.7730 17.361900 15.196300 16.572300
285  1  0.5473  2.455380 12.017100 33.806900
286  1  0.7260 15.163700  5.352490  6.333310
287  1  0.7251 15.677200 16.035000 26.352600
288  1  0.2941  4.346930 10.398000 28.612300
289  2 -0.4902 16.561600 12.176100 34.689800
290  2 -0.3691 15.069700  3.063290 12.075300
291  2 -0.5126  4.282200  4.422380  0.762848
292  2 -0.4838 15.917800 12.695500 38.271200
293  2 -0.7595 15.054500 21.029600 40.107500
294  2 -0.7268 -0.254981  3.655760  6.101030
295  2 -0.8358  6.272350 20.371000 38.709400
296  2 -0.6096  7.749600  7.816930  0.156646
297  2 -0.6995 14.870900  1.634520  7.505310
298  2 -0.4902 13.091500 11.743300  7.836920
299  2 -0.8533  5.525730 10.920700 37.652700
300  2 -0.6932  0.686319 20.313900 40.602600
301  2 -0.5976  1.855280 16.622700 38.664200
302  2 -0.6493  1.181550 11.023700 36.914500
303  2 -0.5977  9.159220  0.294468 40.762300
304  2 -0.7884  8.678540  3.649270 40.156800
305  2 -0.7404  1.952170 14.314700 35.626300
306  2 -0.6383  9.997990 18.197700 36.934000
307  2 -0.3917 16.579700 15.958200 36.205600
308  2 -0.5720 11.140000  2.975030  3.651320
309  2 -0.8766  5.987170 12.131800  5.518630
310  2 -0.6227 10.971800 12.152000  4.107200
311  2 -0.7776 13.089300 19.620400  4.005050
312  2 -0.7028 13.128300  2.924320 37.104100
313  2 -0.7014  3.037860 18.302700  7.944450
314  2 -0.4390 10.029000 20.776800  5.639900
315  2 -0.7622 13.024400 12.521700 40.956800
316  2 -0.7927 15.028300  0.838325  3.355330
317  2 -0.6307  4.259090 17.845300 35.927900
318  2 -0.9771  8.017240 16.804100  3.557340
319  2 -0.6047 13.744300  5.711510 39.205700
320  2 -0.6399  9.982690  1.421700  7.162630
321  2 -0.6449  7.704610  1.946560 30.839100
322  2 -0.5606 15.189900 14.244500  2.714320
323  2 -0.7319 16.790800 17.553700  2.548070
324  2 -0.5980 15.071500  9.830000  9.885880
325  2 -0.7686 10.802600 17.172100  0.620974
326  2 -0.7873  5.251080 19.148000  2.185780
327  2 -0.5027 10.042500  8.639640  4.783520
328  2 -0.5849 15.186200 20.345000 11.653100
329  2 -0.5964  9.857850 14.016700 40.897400
330  2 -0.7213  4.499600  1.387830  8.107540
331  2 -0.5034 12.463200  4.997400  5.952280
332  2 -0.4358  6.752780 20.372600  8.613590
333  2 -0.6694 12.661300  9.079270 12.067700
334  2 -0.4755  8.523060 18.234200 10.726300
335  2 -0.5984 13.388800  9.137550  1.766670
336  2 -0.6166  9.775840 22.105800  2.361450
337  2 -0.5278 10.366400 14.928200  7.545120
338  2 -0.7148 13.033900 20.098400  8.821050
339  2 -0.7523  6.897240  9.599230  9.214250
340  2 -0.4985 11.871000  5.932810  0.867142
341  2 -0.7705  6.539220  1.806170  3.264810
342  2 -0.7042  4.317530 20.966200  5.135940
343  2 -0.8116  4.144810  3.847850  5.953790
344  2 -0.8983 16.272300  8.004100 13.565000
345  2 -0.6868  1.894000 19.517100 11.982400
346  2 -0.5792 11.049000 20.630700 11.517000
347  2 -1.1286  1.763580  9.672850  2.635520
348  2 -0.4373 11.655700 17.880500  5.984860
349  2 -0.7066  9.010770 14.644100 14.000800
350  2 -0.5437  4.510900  4.154190 39.338500
351  2 -0.5016  1.759060  2.599490  3.218170
352  2 -0.6153  7.198770 20.361400 14.251400
353  2 -0.7301 16.925900 19.077200 35.886100
354  2 -0.7328  2.261490 16.242700 17.831400
355  2 -0.5206 15.019800  4.496560  9.443520
356  2 -0.5676 13.949900  3.708430 19.425300
357  2 -0.5791 10.129500 11.965500 16.612900
358  2 -0.3489 14.791100 18.285100 14.590500
359  2 -0.5230 15.073900  6.238230  3.759300
360  2 -0.5246  6.804380  9.883330  3.380950
361  2 -0.7556 12.695800  9.517340 17.927000
362  2 -0.6207  7.709380 18.519800 23.192500
363  2 -0.4923 10.437800  8.632730 14.989400
364  2 -0.5683 13.783000  7.456460  7.810730
365  2 -0.6154 13.186500 14.763200 10.874100
366  2 -0.4440 12.522000  9.153670 29.411500
367  2 -0.7712 14.963900  8.553820 22.561500
368  2 -0.8626  1.284850 14.139500 14.785600
369  2 -0.5609 16.808500  1.814310 21.130500
370  2 -0.8430  6.594660 15.230100  9.343240
371  2 -0.6523  9.269370  4.905620  7.172750
372  2 -0.7655  6.321500 12.539600 14.692300
373  2 -0.5986  6.164360 13.483100  0.916716
374  2 -0.5682 15.799000  4.634510  0.680900
375  2 -0.6182 11.580300 12.124000 13.223200
376  2 -0.6148 10.639000  9.402260  9.450490
377  2 -0.4905  7.626880  9.616130 12.877500
378  2 -0.6343 14.336300 11.484300  4.233250
379  2 -0.6455 11.272500  5.695980 13.087000
380  2 -0.6579 14.700500 12.347300 14.779600
381  2 -0.4895 12.176600 10.833600 24.259700
382  2 -0.6159 14.806500  7.864970 26.723900
383  2 -0.6027  8.623240  5.642230 10.950900
384  2 -0.5163 12.606500  1.103270 13.595800
385  2 -0.6314 16.641400 18.000900 17.005100
386  2 -0.5910  7.091190  8.463490 17.167600
387  2 -0.7044  2.662070  4.801100 20.266600
388  2 -0.7853 13.806400  4.942000 15.833200
389  2 -0.5182 10.305000 17.585900 16.100300
390  2 -0.5861 -0.252305  0.750271 11.375200
391  2 -0.5163 13.121600 18.892900 16.894700
392  2 -0.7652  2.239770  7.099570 24.938200
393  2 -0.5342  3.552870  7.954660 18.620300
394  2 -0.9805  8.979600  1.673970 24.863000
395  2 -0.5412  5.049200 16.293000 22.987900
396  2 -0.4754 14.563100 15.442600 16.573000
397  2 -0.5761  7.008990 18.887600 17.202000
398  2 -0.8339  8.070180  1.442170 11.260300
399  2 -0.6707  5.539770 19.722100 25.936600
400  2 -0.7582  0.114218  7.784640 19.507600
401  2 -0.5158  8.278400  6.116980 14.783000
402  2 -0.5804 12.129200 13.984400 20.021000
403  2 -0.8325 10.683100  2.309630 16.188300
404  2 -0.8070 11.007400  5.621090 18.146300
405  2 -0.5746  2.872060 16.337000  0.692918
406  2 -0.4817 16.054200 15.862100 13.196500
407  2 -1.0117  6.890910  1.859570 18.783200
408  2 -0.7134  3.311920 11.745500 18.601200
409  2 -0.5473  2.731790 14.422300 22.431900
410  2 -0.7219  0.309487 10.400500 24.717500
411  2 -0.5598  5.759330  9.721240 21.285700
412  2 -0.6048  3.450820 10.394200 23.760800
413  2 -0.7379 15.421600 12.001000 21.736400
414  2 -0.4765 15.072600 11.069300 27.372800
415  2 -0.8042 13.426000  5.581380 30.921100
416  2 -0.6578  7.312220  6.237650 27.164100
417  2 -0.7286 10.050700  8.440290 20.089200
418  2 -0.7750 16.197700 20.019400 28.081500
419  2 -0.7027 12.306600 18.859500 20.291000
420  2 -0.5418  0.182729 22.058600 24.842300
421  2 -0.5306 10.843300 20.232900 15.063400
422  2 -0.6277  8.473760 14.872300 29.530500
423  2 -0.6943 12.595400  0.282688 22.681000
424  2 -0.4100  4.817410 20.415100 10.561600
425  2 -0.5925 14.227000 13.758500 31.929300
426  2 -0.5560  0.034537  3.632510 25.833000
427  2 -0.4050 13.378000  4.421610 21.887900
428  2 -0.5173  9.296360  8.874420 29.400800
429  2 -0.6357 11.670400  2.647140 10.193000
430  2 -0.6430 12.123800 15.362500 28.314500
431  2 -0.8898  7.794860  6.272690 22.456900
432  2 -0.5741  9.246820 17.290300 27.147400
433  2 -0.7078 12.711800  4.711870 25.200600
434  2 -0.7201 15.671200 14.846800 28.605200
435  2 -0.7591  4.022930 14.971700 28.734000
436  2 -0.7271  1.235220  8.623680 33.231500
437  2 -0.7729 10.671400 21.415100 26.958700
438  2 -0.7215 15.752100 19.342900 20.332100
439  2 -0.6890  0.510061 13.915700 19.678300
440  2 -0.7147  2.295810 17.997500 26.498500
441  2 -0.6592 10.465900  4.564700 28.029500
442  2 -0.6875  0.330072  9.642650 28.774100
443  2 -0.7428  4.955760 22.130200 32.735800
444  2 -0.5675  7.275670 12.871200 21.372300
445  2 -0.8329  9.981060 -0.058665 33.938000
446  2 -0.5507 10.755100  7.741820 24.066000
447  2 -0.7030  7.832850 12.336600 26.244100
448  2 -0.6466  7.966290  5.611090  4.080500
449  2 -0.6294 14.214600  0.365749 25.725300
450  2 -0.5231  0.698086  1.881450 41.000900
451  2 -0.7591  5.895340 16.871100 13.307100
452  2 -0.6943  5.510550 18.761500 29.839700
453  2 -0.7702  2.285890  5.324200 29.305200
454  2 -0.6210 17.160400  2.121270 29.421800
455  2 -0.6354 11.982900 11.146000 33.172100
456  2 -0.7644  5.291220  2.343610 28.554200
457  2 -0.6131 15.471900 13.774600 25.121200
458  2 -0.6887  0.304158 12.486300 31.683800
459  2 -0.5383 12.745300 19.414500 35.641600
460  2 -0.6885  1.268130 18.376900 30.597500
461  2 -0.6788 12.848500 16.453900 24.859900
462  2 -0.5093  4.114270 16.408500 32.476100
463  2 -0.9035 -0.281874  4.405000 32.207600
464  2 -0.6452  1.499420 13.609100 25.367200
465  2 -0.5487  4.827940 15.067100 38.013300
466  2 -0.7293 12.865000  9.618300 36.851700
467  2 -0.9284  4.131200  7.979110 28.041400
468  2 -0.5937 11.944200 15.712000  3.504930
469  2 -0.5508 17.036900  5.565380 22.761300
470  2 -0.6868  1.265060  0.625513 32.110900
471  2 -0.5050 16.529200 16.147200 41.293400
472  2 -0.5703 10.098800 13.920500 23.550600
473  2 -0.6577 12.112700 18.998600 28.815800
474  2 -0.6185  6.730510 13.237800 32.240100
475  2 -0.8657 14.945100 21.650300 31.617500
476  2 -0.5930 14.433800 16.301700 21.199200
477  2 -0.4953  1.612550  0.060541 28.174300
478  2 -0.8535  4.386560  4.389100 24.590000
479  2 -0.6940 16.692900 17.738000 24.446800
480  2 -0.7076  7.338210 15.482000 35.027100
481  2 -0.6025 12.733300 15.909000 34.956000
482  2 -0.8110  2.374010 21.234800 36.107300
483  2 -0.7478 10.125400 11.872500 37.034500
484  2 -0.6633  7.154190 18.859900 33.555600
485  2 -0.8541  9.773830  0.867082 37.392300
486  2 -0.7007 15.909300 22.403200 35.032400
487  2 -0.5751  4.442560  0.485466 41.617700
488  2 -0.6304 12.495700  1.179220 41.297800
489  2 -0.5695  7.522770 10.693600 40.383100
490  2 -0.7087 10.436900 16.920900 32.772400
491  2 -0.5058 11.392900 19.703500 39.585400
492  2 -0.5373 13.787200 16.730200 38.739600
493  2 -0.7728  0.416161 20.946900  3.774850
494  2 -0.7182 12.161000  7.266790 34.105700
495  2 -0.7421  9.381190 21.229600 20.819300
496  2 -0.8558  4.992070  1.942090 36.667600
497  2 -0.6839 16.161100 16.731800 32.361700
498  2 -0.6891  8.459470 17.986800 40.037900
499  2 -0.8689  4.416090  6.711020 33.148600
500  2 -0.7153  9.586450 19.802900 30.646100
501  2 -0.6820 12.794700  2.028520 32.941700
502  2 -0.8737  7.665690  9.931920 33.127800
503  2 -0.6661  3.866220  3.372290 32.400200
504  2 -0.4160  9.426930  6.754260 31.700000

