Generated by pymatgen.io.lammps.data.LammpsData

320  atoms

  2  atom types

0.000000 24.637781  xlo xhi
0.000000 17.058433  ylo yhi
0.000000 27.370788  zlo zhi

Masses

1  208.9804
2   78.9600

Atoms

1    1  0.7309  2.954800  3.183400  1.180330
2    1  0.7061  4.660020  1.380480 18.364700
3    1  0.6743  1.194530 10.648600  5.477960
4    1  0.5277  0.026187  6.961560 16.746600
5    1  0.6515 12.049400  6.805120  5.677900
6    1  0.4567  9.594410 16.768700 11.366100
7    1  0.7767 19.272300 15.416700  4.857710
8    1  0.7502  8.037990  9.582960 13.407400
9    1  0.7157  6.655050  5.749650  9.848810
10   1  0.5705 -1.528770 15.034000 22.485400
11   1  0.7167  1.105150 12.737300 10.601000
12   1  0.7095  2.987370 15.480500 22.060400
13   1  0.7091 15.258700  5.165220 18.647300
14   1  0.6402 17.329600  5.004210 25.493700
15   1  0.7167 15.925200 14.157500 12.010200
16   1  0.4599 18.234700 12.618800 27.060900
17   1  0.7453  6.844840 17.152600  3.772890
18   1  0.7596  9.053600  9.277860 22.774400
19   1  0.6892  3.829500 15.579100  0.695799
20   1  0.6186  4.656860 13.742400 24.826800
21   1  0.6105 15.593400  7.830100  9.055190
22   1  0.5135 18.405100 16.706600 18.074400
23   1  0.5128 18.170800  9.286850  1.187900
24   1  0.6768 15.959000 10.343700 15.408100
25   1  0.7560 21.380200 16.453100 13.000600
26   1  0.5906 -1.859790 17.118900 24.661200
27   1  0.5910  1.730510  7.803650  9.556870
28   1  0.8355 -1.329280  8.463630 23.602800
29   1  0.7420 12.552900 15.495500  9.849980
30   1  0.6409 12.773200 16.206600 18.526300
31   1  0.6067  2.977660 17.034400  9.510670
32   1  0.7001  8.157340 11.257300 19.496200
33   1  0.7183  2.552000  5.302120  6.659610
34   1  0.4974 18.942400  3.769540 21.203900
35   1  0.7961  0.048464 13.927700  5.150530
36   1  0.7385 -0.681301 12.854400 14.763500
37   1  0.6169 11.621300  8.057000 10.493100
38   1  0.6664  4.655250  4.405920 15.863900
39   1  0.6722 10.118000  3.486170  4.493760
40   1  0.6892 11.695300 11.114300 16.342700
41   1  0.6528 20.911700  3.367160  8.594620
42   1  0.8166  1.553520  2.611010 22.590300
43   1  0.6791 19.545300 12.303200 11.203100
44   1  0.4632 21.194800 11.513900 24.353000
45   1  0.7098 11.667500  5.831490 14.203700
46   1  0.7421  8.812710  6.322720 27.234400
47   1  0.5457 13.698000 15.119600 16.252700
48   1  0.5066 12.014600 11.801800 25.456900
49   1  0.6615  3.730370 11.180900  7.997220
50   1  0.7914  7.679850  4.419800 19.979900
51   1  0.6638  4.130620  5.896350 26.311300
52   1  0.6211  1.716350  9.805380 16.879100
53   1  0.6552 18.716700 15.665000  9.240290
54   1  0.5386 11.998100  7.826610 24.383000
55   1  0.7429 21.559800 11.395100  7.124100
56   1  0.6167  1.135290  3.170770 15.818000
57   1  0.7979  5.519820  3.255280  5.167080
58   1  0.8568  7.596410  1.594270 22.743500
59   1  0.3773  1.860390  7.246810 13.705500
60   1  0.7717  7.822010 11.603500 27.275500
61   1  0.7154 15.841100  4.482570  9.785980
62   1  0.6100 19.826400 13.982500 22.809100
63   1  0.6312 15.572800 12.526000  8.399430
64   1  0.6511 19.747900  7.666560 26.067700
65   1  0.7463  0.835551 11.389000 25.465300
66   1  0.5218  2.364570  2.929830 12.298600
67   1  0.6347  4.250120 17.931400 25.188400
68   1  0.7053  0.271010 16.789000 13.624300
69   1  0.6595  5.290450  9.890540 25.217900
70   1  0.7883 12.271300  2.850210 19.403700
71   1  0.5512 15.757900 11.138700 25.203600
72   1  0.5567  9.308570 17.750600 13.979200
73   1  0.8123  8.493120  5.241600 23.675900
74   1  0.7561 14.376400 17.897800 13.118600
75   1  0.6960  7.869590 15.424900 26.208900
76   1  0.6659  4.477080 14.172600 10.415300
77   1  0.8070 -0.153746  8.373880  0.667983
78   1  0.5835 -0.953349  4.936790 13.119300
79   1  0.6208 19.767700 15.607800 26.311900
80   1  0.6824 21.758500  2.246010 16.770500
81   1  0.7127  0.378970  2.962400 26.150100
82   1  0.7206  3.245010 13.305000 15.269500
83   1  0.7137  3.279480 11.517200  1.629630
84   1  0.6245  5.666680 16.107300 16.303000
85   1  0.5982 12.865600  6.010490 27.108600
86   1  0.5879 15.489700 18.066900 16.729900
87   1  0.4078 14.481500  9.198760 26.957100
88   1  0.6969 13.787300  9.062980 12.786800
89   1  0.7978 16.622900 17.903000 25.792200
90   1  0.7925  8.251570  4.260570 13.243500
91   1  0.8210  7.469780 13.839500 22.110600
92   1  0.6986  7.126800 13.038800 13.576900
93   1  0.7273 20.273600  2.507820 24.684800
94   1  0.7326 19.237700  3.433180 14.484700
95   1  0.6228 -2.353030 12.011200  0.690955
96   1  0.8668 19.879800  6.901620 13.327600
97   1  0.6249 -1.552260  6.881140  6.773590
98   1  0.6924  5.225260  7.095150 21.347900
99   1  0.7704  4.745600 13.414800  4.282960
100  1  0.4598 20.993600 17.769800 20.319100
101  1  0.8133 11.286900 12.458400 12.821400
102  1  0.5701 15.373300  3.563040 22.925900
103  1  0.6770  9.560390  4.100080  7.976830
104  1  0.7170  9.875510  1.956010  0.553772
105  1  0.6202 11.188600  2.952710 11.999100
106  1  0.6049  5.799130 11.993800 17.225600
107  1  0.5314  5.787880  2.076090 11.946500
108  1  0.7299  8.449790 17.532600 17.522500
109  1  0.6057 18.638400  9.729060  7.778020
110  1  0.6466 12.988200 10.885300 20.860300
111  1  0.7738 16.033700 16.386100  6.609510
112  1  0.7098 15.442100  5.095200 14.607400
113  1  0.5472 -0.682984  4.642120  9.703340
114  1  0.6832  0.827624 14.806900  0.151612
115  1  0.6655  3.043920  9.724670 12.497400
116  1  0.6480  4.557370  8.333540 18.812000
117  1  0.6129  6.776390 17.434900  9.370160
118  1  0.7547 11.894400 15.741400 26.742600
119  1  0.6469 17.322000 11.611600  3.822690
120  1  0.7325 13.183000 14.043900 22.654400
121  1  0.6555  3.612580  7.255640  2.537430
122  1  0.7713 11.804100  3.089040 23.604100
123  1  0.7727  7.350430  9.367550  8.856290
124  1  0.4775 15.099500 12.859200 18.559100
125  1  0.7663 -0.226605  4.688690  3.283380
126  1  0.7170 -2.067570  4.002570 20.810500
127  1  0.7751 -1.357070 16.564400  8.513880
128  1  0.6300 17.255200 17.210500 21.506800
129  2 -0.6303  5.065920  5.001890 12.717000
130  2 -0.1437 11.037900  6.282390 16.708700
131  2 -0.6034  5.082310 15.869900  8.196040
132  2 -0.8354  1.116790 17.999000 24.440000
133  2 -0.5202 21.160000  3.962330 12.506200
134  2 -0.4228 20.198100  8.996160 23.624000
135  2 -0.1644 -1.819040 10.521800 11.068200
136  2 -0.4616 17.173400 14.612700 24.906000
137  2 -0.4385 18.792000  5.573310  8.835090
138  2 -0.2014  0.418238 15.399200 20.114600
139  2 -0.5492  6.259640  9.561460 11.170900
140  2 -0.2858  2.955460  6.900340 23.241800
141  2 -0.6769 15.346600  6.592940 11.649100
142  2 -0.6570  8.316260 12.752300 24.882000
143  2 -0.5390 13.260400 18.631000 10.481300
144  2 -0.3569 14.664000 17.232700 23.210400
145  2 -0.1227 16.683600  6.910430  4.582700
146  2 -0.1573  2.119350  9.494630 21.196900
147  2 -0.4878 16.265500  6.878380  0.655129
148  2 -0.5568 -1.181270 14.910400 11.880600
149  2 -0.0255  8.663600 10.776300  3.761310
150  2 -0.7453 13.282000 12.431900 14.815900
151  2 -0.0920 13.971300 17.013100  3.825370
152  2 -0.6673  7.981980 13.885500 15.984300
153  2 -0.4795  5.526560  3.076830  2.400910
154  2 -0.2182 -1.258180  7.914450 20.372700
155  2 -0.6023  2.946340 13.684000  6.355930
156  2 -0.4222  7.938930  9.467170 17.227400
157  2 -0.1842  9.871230 11.077700  8.967210
158  2 -0.6574 11.218100  9.495670 13.767500
159  2 -0.3348 20.245200  8.355900  4.910790
160  2 -0.5637  4.625960  4.292970 18.740700
161  2 -0.6223  2.614040  4.493960  3.874250
162  2 -0.6129  1.535930 18.225800  0.461297
163  2 -0.5534  8.791480 11.698200 11.799200
164  2 -0.5873  3.534590 10.758400 18.572400
165  2 -0.4607  1.222570 15.514500 15.565900
166  2 -0.7671 19.825300 16.615200 23.652200
167  2 -0.5556 -0.023881  9.471740  8.132040
168  2 -0.2299 21.634100  5.316050  2.193740
169  2 -0.6497  0.676581 18.630600 10.682800
170  2 -0.5349  6.029850 17.505100  0.329706
171  2 -0.2823  5.602900  6.407820  5.624740
172  2 -0.6304  6.888570  7.346970 23.929000
173  2 -0.6399 12.233400 17.440000 15.049300
174  2 -0.5226 14.500800  3.215160 26.117200
175  2 -0.7544 17.555200 13.833800  6.668570
176  2 -0.6032 13.561700  8.988720 22.679800
177  2 -0.1169  8.819940  9.369510  2.354340
178  2 -0.3240  0.164011  5.260770 23.098700
179  2  0.0008 13.072000 14.894100  3.425530
180  2 -0.8362 17.623400  9.414400 26.094100
181  2 -0.5601  5.925360  9.489890  0.594042
182  2 -0.3684 10.549100 17.472400 19.759400
183  2 -0.7650 -1.516900  9.639990 25.887400
184  2  0.0457 20.654200  8.005010 20.145700
185  2 -0.4344 11.465600 13.046800  0.316115
186  2 -0.3025 -1.682300  9.770730 13.884800
187  2 -0.4619  7.100300  4.348060 26.317700
188  2 -0.8550  7.987420  2.479000 10.391500
189  2 -0.4927 18.792100  2.065130 26.896900
190  2 -0.3352 10.749900  9.734140 18.810100
191  2 -0.0959 17.662900 17.538100  2.494050
192  2 -0.5766 11.445200 13.497600 19.066100
193  2  0.0666 10.764200 13.186600  4.158540
194  2 -0.2796  1.647250  1.118530 18.055000
195  2 -0.2392  0.863753 16.770800  6.061040
196  2 -0.6336  9.922210 11.371300 21.788400
197  2 -0.7945 10.869300  5.127980 24.968400
198  2 -0.6036  9.630390  3.422240 22.092900
199  2 -0.0774 14.402900  4.802880  2.772810
200  2 -0.3393 11.464000 16.135900 22.778100
201  2 -0.5965  0.554347  7.722850  3.377530
202  2 -0.4899  8.456600  6.996100 20.698000
203  2 -0.3725  8.154140  4.654500  1.933480
204  2 -0.4169  4.971370 15.050100 19.364400
205  2 -0.6269 -1.066280  6.942610 11.821800
206  2 -0.0907 21.345800  9.583010 16.553800
207  2 -0.5787 14.222300 13.691700 25.273100
208  2 -0.4268 21.056300  4.892920 18.815500
209  2 -0.7242  2.190570  5.137420  9.641710
210  2 -0.5859  1.899600  8.924430 26.662900
211  2 -0.0959 -1.060190 14.067300 17.691300
212  2  0.0002 -1.857970  1.300870  2.836640
213  2 -0.6834 10.347000  3.441320 14.408500
214  2 -0.3303 10.565600 17.712100  4.032770
215  2 -0.1522 20.339400 13.887700 15.528500
216  2 -0.3109 14.610500  2.185900  7.477020
217  2 -0.6053 -1.720110  2.327240 14.280300
218  2 -0.4834  3.897150  3.682950 24.728300
219  2 -0.7340  1.773090 11.592100 14.077700
220  2 -0.5627  0.380760 11.555600  1.146640
221  2 -0.3504  9.509490  3.657070 17.908800
222  2 -0.1119 17.744900 10.644700 20.769800
223  2 -0.5249 15.985700 15.940000 14.497200
224  2 -0.3810  9.566590 15.670400  1.492640
225  2 -0.5888  2.419900 14.009500  2.819620
226  2 -0.7217 15.588200 15.552300 18.906200
227  2 -0.4236  0.266885  3.302600  6.314950
228  2 -0.4576 15.487100 13.170300 22.145600
229  2 -0.5728 20.752800  4.561470 23.477200
230  2 -0.2728  7.270230 13.700200  4.888330
231  2 -0.1830 19.573200 17.261400  2.792130
232  2 -0.3693 12.631500 11.968300 10.337400
233  2 -0.4453  9.544790  6.068810  4.746090
234  2 -0.6807  5.932880 15.622200 13.603100
235  2 -0.4518 -0.398251 11.370500 22.762500
236  2 -0.4293 21.139100  8.854590  8.482230
237  2 -0.4519 11.474200  5.936130  1.875910
238  2 -0.0325 17.814100  8.765660 19.292600
239  2 -0.3713  4.085780 17.133600  3.282430
240  2 -0.4233 20.829800  5.535790 15.445000
241  2 -0.5986  8.843950  6.558200  8.323750
242  2 -0.5193  6.188640 10.311100 22.126100
243  2 -0.5155 -0.426156 13.832100  8.458910
244  2 -0.8504  2.995260 12.879000 26.541600
245  2 -0.5414 16.285200  9.932510  6.428250
246  2 -0.8255 17.882200  2.181610 23.506900
247  2 -0.5150 21.671300 18.199400 10.557200
248  2 -0.4858 18.851000 17.620500 14.966100
249  2 -0.4830  4.770240  3.432880  7.811310
250  2 -0.5128  5.922120  4.405870 22.162800
251  2 -0.7264  3.677020 11.503800 10.649400
252  2 -0.6840  6.460660 16.269700 23.777100
253  2 -0.4002 12.510800  1.042990  0.388099
254  2 -0.4475 19.525600 14.311300 20.144000
255  2 -0.4251 18.691600  8.645520 11.160500
256  2 -0.5477  9.594120 18.103000 25.225400
257  2  0.0616 10.366500 12.384400  6.359450
258  2 -0.3795 17.610100  6.407420 23.172200
259  2 -0.2005 13.245900 10.244700  2.431920
260  2 -0.0871 -0.204404 12.487100 19.043300
261  2 -0.3204 -1.348550 15.351600  1.580750
262  2 -0.6586 17.483200  3.772850 17.242400
263  2 -0.7414 15.595300 15.217300  9.556410
264  2 -0.1753 20.949100 11.922400 14.583500
265  2 -0.6047  8.136180  2.265630  6.357820
266  2 -0.4994  7.489810  1.026470 20.023100
267  2 -0.8388 -2.107940 14.463000 25.409600
268  2 -0.5092 16.270400  2.647930 12.322900
269  2 -0.6770  9.550100  9.423990 25.644700
270  2 -0.5498 14.112900  8.200720 15.667500
271  2  0.0410 19.679100  2.690230  3.968580
272  2 -0.2809 14.197400  7.543420 19.106200
273  2 -0.1428 21.819800  2.010660  1.228910
274  2 -0.4851  4.098100  0.987032 21.393200
275  2 -0.5892  3.699750  8.667100  7.166740
276  2 -0.0274 19.598000 11.489200 18.175300
277  2 -0.4661 13.214700  9.238260  8.301400
278  2 -0.6709 14.271000  3.545380 15.961600
279  2 -0.7410 11.406700 15.077000 12.246300
280  2 -0.2283  7.535430  5.690020 16.294500
281  2 -0.5448 -1.315950 10.996100  4.980620
282  2 -0.2908  0.993250  4.610890 19.912900
283  2 -0.6284 20.714100 13.851500  9.408810
284  2 -0.4572 18.538600 14.407100 12.975200
285  2 -0.2772  6.929210 12.713100  8.533360
286  2 -0.1007 15.979700  3.282150  5.755440
287  2 -0.2664 12.889600 13.944300  7.530540
288  2 -0.3776  7.922540 14.847700 19.849200
289  2 -0.2389  8.681940 16.033600  7.346100
290  2 -0.5392  4.174960 13.111600 22.418600
291  2 -0.6428  8.855340  6.196870 11.981300
292  2 -0.3586 -2.200360  5.550820 25.535800
293  2  0.0668 17.620000  3.207980  3.264710
294  2 -0.3676 22.650100 16.636200 16.954300
295  2 -0.6704 19.900700 12.915100  1.979270
296  2 -0.5879 -0.769861  4.112510 17.046100
297  2 -0.4599 21.933700 14.299600  5.973370
298  2 -0.7512 -1.717330 18.108400 21.782000
299  2 -0.3202 21.550200  4.996640  5.467090
300  2 -0.6787  3.684660  1.810230 14.832400
301  2 -0.6406 12.206400  5.233920 10.273700
302  2 -0.6973 14.326000  1.662520 20.020600
303  2 -0.4345 16.454700 13.781300  2.583780
304  2 -0.5050 12.680500  4.848120 21.640200
305  2 -0.5934  2.815280 14.585700 12.668000
306  2 -0.5204  4.013960 10.227100  4.131540
307  2 -0.5936  5.076630 10.638900 14.981700
308  2 -0.6930  5.996170 14.142300  0.683434
309  2 -0.0767 18.634400  7.092310 16.983700
310  2 -0.1625 14.427100  8.982150  3.646920
311  2 -0.5982 15.610700 10.976200 12.485300
312  2 -0.0670 21.934500 11.551200 19.273100
313  2 -0.7733  3.161860  7.500870 16.332700
314  2 -0.6758  1.037550  5.259340  0.409956
315  2 -0.6791  7.222940  1.666560 15.270100
316  2 -0.0971 13.734800  2.980600  2.929280
317  2 -0.4049 17.679400  7.907630 14.603700
318  2  0.0316 18.621300  5.736620  4.612430
319  2 -0.5409 18.423400 17.454200  6.981840
320  2 -0.2654 21.961700  1.771770  6.085240

