Generated by pymatgen.io.lammps.data.LammpsData

216  atoms

  2  atom types

0.000000 18.096178  xlo xhi
0.000000 18.140645  ylo yhi
0.000000 18.233787  zlo zhi

Masses

1  208.9804
2   78.9600

Atoms

1    1  0.8163 18.287800 18.372800 -0.086000
2    1  0.8054 -0.013484  0.015138  6.383310
3    1  0.7888 18.078300 18.237600 12.318100
4    1  0.7961 -0.017788  6.428280  0.467005
5    1  0.7508 18.437300  6.194020  6.090210
6    1  0.8271 18.280700  6.228320 12.553500
7    1  0.7464 18.097100 12.301700 18.975700
8    1  0.8038  0.371850 12.218200  6.632290
9    1  0.7805  0.063019 11.876600 12.543600
10   1  0.7783  5.955580 18.327000 18.860700
11   1  0.8477  6.310370  0.025602  6.734860
12   1  0.8251  6.119080  0.280377 12.204100
13   1  0.8306  6.156660  6.169140 18.266800
14   1  0.7854  6.139050  6.462650  6.152450
15   1  0.7657  6.072640  6.153580 12.287900
16   1  0.7956  6.481850 12.155600 18.678000
17   1  0.8481  6.404500 12.367600  6.532800
18   1  0.7735  6.027330 12.586100 12.456400
19   1  0.7405 12.221800 18.500400  0.543954
20   1  0.7904 11.631000 18.372000  6.112810
21   1  0.8171 11.861800  0.233843 12.336700
22   1  0.7550 12.118200  6.181610  0.461886
23   1  0.7424 12.177200  6.295740  6.832630
24   1  0.8017 11.733200  6.047280 12.527200
25   1  0.7932 12.644300 12.309200 18.447400
26   1  0.8028 12.494100 12.714900  6.429220
27   1  0.7609 11.925600 12.219900 12.624900
28   1  0.7699  0.321803  3.203380  3.603380
29   1  0.7983  0.337920  3.243500  9.481580
30   1  0.8217 18.007600  3.310930 15.512700
31   1  0.7934 18.444500  9.062870  3.436900
32   1  0.8034  0.010778  8.834330  9.716500
33   1  0.7811  0.118508  9.587320 15.661400
34   1  0.7602 -0.131378 15.392500  3.002850
35   1  0.6984 18.144900 15.565300  9.235090
36   1  0.8389 -0.116371 15.286300 15.614400
37   1  0.8814  6.297440  3.005270  3.414210
38   1  0.8390  6.128050  3.113020  9.354160
39   1  0.7564  6.047000  3.429080 15.532100
40   1  0.7194  6.493460  9.299720  3.590760
41   1  0.7812  6.306360  9.147470  9.513730
42   1  0.8322  6.264020  9.189290 15.633600
43   1  0.7839  6.218010 15.624800  3.269730
44   1  0.8037  6.308270 15.228600  9.392480
45   1  0.7459  6.262170 15.124500 15.559400
46   1  0.8266 12.033600  3.348800  3.437960
47   1  0.7728 12.260000  3.089330  9.585440
48   1  0.7871 12.200400  3.313140 15.414900
49   1  0.8181 12.218800  9.227140  3.296620
50   1  0.7530 12.065100  9.208290  9.549230
51   1  0.7966 12.248800  9.385270 15.465100
52   1  0.7857 12.123600 15.657800  3.208820
53   1  0.7937 12.135200 15.530400  9.427970
54   1  0.8166 12.692900 15.203700 15.660800
55   1  0.8211  2.932620  0.307377  3.309540
56   1  0.7973  3.355000 18.106600  9.352500
57   1  0.8149  3.287040 18.177700 15.392700
58   1  0.7505  3.197110  6.398950  3.585040
59   1  0.7707  3.443160  5.953560  9.595740
60   1  0.7989  3.307430  6.417500 15.632400
61   1  0.7990  3.106210 12.385400  3.499460
62   1  0.7553  3.037230 12.015300  9.276370
63   1  0.7817  3.296090 12.297700 15.496400
64   1  0.7663  9.294880 18.228300  3.389110
65   1  0.7215  9.670020  0.120169  9.529940
66   1  0.7772  9.096520 -0.082740 15.597700
67   1  0.7907  9.329590  6.137320  3.729960
68   1  0.8677  8.984750  6.149430  9.402720
69   1  0.7787  9.317230  6.186630 15.563300
70   1  0.8164  9.149010 12.595400  3.481190
71   1  0.7571  9.335640 12.146400  9.188740
72   1  0.8276  9.134420 12.221200 15.555500
73   1  0.8233 15.601900  0.113723  3.712110
74   1  0.8019 15.448500  0.250346  9.146500
75   1  0.7641 15.158000 18.315000 15.067200
76   1  0.8054 14.948200  6.171610  3.623980
77   1  0.7891 15.084400  6.264130  9.452850
78   1  0.7946 14.850200  6.035220 15.951300
79   1  0.8350 15.499800 12.017900  3.351650
80   1  0.7535 15.411400 12.333800  9.449040
81   1  0.8561 15.557700 12.301600 15.597800
82   1  0.7965  3.168980  3.406120  0.080167
83   1  0.7826  3.281770  3.164930  6.553630
84   1  0.7955  3.252090  2.898040 12.398600
85   1  0.7629  3.582280  9.506250  0.302849
86   1  0.7990  3.235330  9.007020  6.375560
87   1  0.7748  3.337600  9.289060 12.158800
88   1  0.7607  2.965460 15.411100  0.455679
89   1  0.8120  3.416580 14.939700  6.169990
90   1  0.7569  3.049010 15.246900 12.165200
91   1  0.8140  8.996080  3.360010  0.308596
92   1  0.7949  9.159200  3.091590  6.755200
93   1  0.7908  9.271240  2.954120 12.724200
94   1  0.8451  9.330840  9.304270  0.639510
95   1  0.7398  9.185490  9.060000  6.560160
96   1  0.7723  8.922810  9.107120 12.373300
97   1  0.7568  9.559470 15.495800  0.427053
98   1  0.7873  9.603550 15.584100  6.999000
99   1  0.8241  9.465970 15.247600 12.670000
100  1  0.8326 14.994600  3.114130  0.490633
101  1  0.7937 15.175100  3.233210  6.184660
102  1  0.7832 15.560200  3.202980 12.632700
103  1  0.7340 15.220400  9.313330  0.389590
104  1  0.8650 15.330700  9.244270  6.336120
105  1  0.8084 15.045200  9.375240 12.412800
106  1  0.7663 15.291100 15.294300 18.626900
107  1  0.7550 15.370100 15.185400  6.849660
108  1  0.8562 14.979800 15.132500 12.449400
109  2 -0.7956  3.029510  0.402792 18.325300
110  2 -0.7096  3.265310 17.892000  6.386140
111  2 -0.8006  3.296710 -0.082253 12.414600
112  2 -0.7927  3.455360  6.199460 18.582800
113  2 -0.8665  3.157010  6.214820  6.347140
114  2 -0.7921  3.206240  6.267130 12.543400
115  2 -0.7862  3.658320 12.137500  0.417090
116  2 -0.8015  3.332370 12.256900  6.281850
117  2 -0.8090  2.853290 12.117800 12.511200
118  2 -0.8062  9.107000 18.474500 18.881600
119  2 -0.9096  9.034450  0.201983  6.653180
120  2 -0.8278  9.246570 -0.098920 12.712600
121  2 -0.7699  9.085490  6.081020  0.471301
122  2 -0.8417  9.019400  6.278940  6.754790
123  2 -0.8062  8.974450  6.096540 12.213300
124  2 -0.7558  9.224860 12.350500 18.376300
125  2 -0.7526  9.337250 12.555500  6.343400
126  2 -0.7816  9.020480 12.295700 12.814300
127  2 -0.7460 15.316300 18.539600 18.742000
128  2 -0.7874 15.135200 18.460700  6.418550
129  2 -0.7559 15.272700  0.153978 12.210100
130  2 -0.8238 15.009100  6.183330  0.445915
131  2 -0.8108 15.288600  6.121980  6.171340
132  2 -0.6815 15.323700  6.401220 12.381700
133  2 -0.8893 15.432700 12.313300  0.304252
134  2 -0.7331 15.498000 12.197300  6.161810
135  2 -0.7618 15.211600 12.291500 12.848200
136  2 -0.7480  3.490890  3.025810  3.619340
137  2 -0.8627  3.474090  3.087420  9.708350
138  2 -0.7660  3.008330  3.304950 15.438100
139  2 -0.8111  2.999470  9.518970  3.546460
140  2 -0.7992  3.349500  9.118740  9.400500
141  2 -0.7677  3.317200  9.303150 15.562500
142  2 -0.7907  3.111410 15.632000  3.278150
143  2 -0.8008  3.066270 15.297700  9.310760
144  2 -0.7394  3.142070 15.427100 15.672600
145  2 -0.7641  9.151770  3.305660  3.543870
146  2 -0.7859  9.028160  3.381840  9.679520
147  2 -0.8022  9.276900  3.200760 15.620000
148  2 -0.8156  9.464970  9.247670  3.361670
149  2 -0.8701  9.151890  9.224800  9.363210
150  2 -0.7427  9.451090  9.162870 15.832100
151  2 -0.8215  9.263480 15.405000  3.407470
152  2 -0.8471  9.227670 15.190300  9.631970
153  2 -0.7739  9.543930 15.150300 15.682600
154  2 -0.7518 15.211100  3.152770  3.284290
155  2 -0.7197 15.323900  3.375920  9.408670
156  2 -0.8325 15.100300  3.370870 15.422700
157  2 -0.7975 15.487200  9.358150  3.638160
158  2 -0.7773 15.114300  9.446050  9.453140
159  2 -0.7503 15.243900  9.291440 15.418200
160  2 -0.7453 15.022300 15.360500  3.495600
161  2 -0.8353 14.853000 15.217500  9.567050
162  2 -0.8360 15.395500 15.223700 15.452400
163  2 -0.8460 18.289000  0.362086  3.786110
164  2 -0.8485  0.191833  0.124198  9.478890
165  2 -0.7991 18.060200 18.307900 15.632100
166  2 -0.8526  0.308198  6.137290  3.308630
167  2 -0.7699 -0.052445  5.989060  9.551340
168  2 -0.6995 -0.110706  6.163730 15.663900
169  2 -0.7891  0.235431 12.377400  3.579840
170  2 -0.8043  0.202351 11.650300  9.565060
171  2 -0.8141 18.362300 12.350100 15.687400
172  2 -0.7953  6.157550 18.425200  3.423760
173  2 -0.8461  6.215850 18.327700  9.366870
174  2 -0.7220  6.145560 18.192100 15.521200
175  2 -0.7548  6.334470  6.109510  3.450610
176  2 -0.8201  6.103110  6.120480  9.334050
177  2 -0.8602  6.031760  6.274650 15.532600
178  2 -0.7734  6.468190 12.266500  3.664720
179  2 -0.7741  6.345340 12.416100  9.383760
180  2 -0.7758  6.368490 11.946100 15.600900
181  2 -0.8130 12.257600 18.640700  3.352890
182  2 -0.8449 12.302600  0.269749  9.400770
183  2 -0.7475 12.310600  0.168869 15.396900
184  2 -0.8319 12.257100  6.250110  3.835220
185  2 -0.8216 12.091300  6.268090  9.657450
186  2 -0.8402 11.934800  6.196380 15.426100
187  2 -0.6663 12.391200 12.314500  3.533500
188  2 -0.7659 12.429900 12.564100  9.553310
189  2 -0.7768 12.782800 12.221400 15.435800
190  2 -0.7271  0.045105  3.184570  0.071809
191  2 -0.7872  0.260303  3.037320  6.502620
192  2 -0.8187 18.248300  3.170070 12.468000
193  2 -0.8093 18.197700  9.176180  0.516416
194  2 -0.7411 17.976300  9.309160  6.688600
195  2 -0.7763 18.140100  8.973230 12.609300
196  2 -0.8841 -0.042792 15.389100 18.586600
197  2 -0.7989 18.114400 15.239800  6.291440
198  2 -0.7367 -0.252972 15.368800 12.475600
199  2 -0.7880  6.058530  3.272850  0.419590
200  2 -0.7408  6.086140  3.344730  6.451430
201  2 -0.7898  6.194010  3.049600 12.578000
202  2 -0.7963  6.612880  9.164990 18.536900
203  2 -0.8127  5.986120  9.574420  6.573150
204  2 -0.7915  6.306830  9.568290 12.628100
205  2 -0.7663  6.085450 15.376100  0.428638
206  2 -0.7653  6.342220 15.396300  6.514980
207  2 -0.7665  6.073710 15.407200 12.474600
208  2 -0.8046 12.154500  3.353000  0.513838
209  2 -0.7801 11.941400  3.097150  6.402370
210  2 -0.8248 12.114500  3.001380 12.534900
211  2 -0.8230 12.201900  9.340630  0.521363
212  2 -0.7287 12.349000  9.428440  6.272700
213  2 -0.7813 12.025900  9.097680 12.449400
214  2 -0.8556 12.293200 15.062100 18.537700
215  2 -0.8226 12.165700 15.508700  6.344870
216  2 -0.7848 12.142300 15.430700 12.612800

