Generated by pymatgen.io.lammps.data.LammpsData

320  atoms

  2  atom types

0.000000 16.864293  xlo xhi
0.000000 23.165087  ylo yhi
0.000000 24.472453  zlo zhi

Masses

1  208.9804
2   78.9600

Atoms

1    1  0.7097  1.044910 11.719200 10.499200
2    1  0.8137  1.072700 11.125300 23.338400
3    1  0.7451  1.428930  0.204398 10.634100
4    1  0.8604  1.106440 21.759300 22.615400
5    1  0.8385  5.330840 10.916100 10.740100
6    1  0.7600  4.951240 11.942100 23.058300
7    1  0.7893  5.407700  0.022297  9.670070
8    1  0.8963  5.036260 -0.015699 22.918000
9    1  0.8435  9.499860 11.706700 11.283000
10   1  0.7948  9.433090 11.100000 22.961600
11   1  0.7865  9.830170 22.328400  9.969890
12   1  0.8534  9.736190 22.730800 22.110600
13   1  0.8361 13.610500 11.571600  9.882960
14   1  0.8874 13.876200 12.088900 22.660900
15   1  0.7850 13.809600 22.506400 11.025900
16   1  0.8033 13.840100 22.144900 23.117500
17   1  0.7952  3.412700  0.429372  2.219490
18   1  0.8675  3.425370  0.355446 14.307200
19   1  0.7730  3.100370 12.184000  2.564850
20   1  0.8332  3.185330 11.511200 14.705800
21   1  0.8636  7.587570  0.348883  2.709530
22   1  0.8492  7.215260 22.853400 15.026400
23   1  0.7722  7.659810 12.074400  2.521890
24   1  0.8433  7.631860 11.783600 14.601800
25   1  0.8278 11.882200  0.971184  2.014560
26   1  0.7650 10.622600 -0.047482 13.874200
27   1  0.7563 11.747200 12.430000  2.042020
28   1  0.8854 11.506500 12.022900 14.179300
29   1  0.8195 15.528600  0.211532  2.346470
30   1  0.7946 15.230100  0.535334 14.656100
31   1  0.8262 16.179700 11.680900  3.061620
32   1  0.8933 15.459400 12.285900 14.939400
33   1  0.7744  2.790370  5.579550  8.859830
34   1  0.8354  3.818990  4.959590 20.253400
35   1  0.8864  3.989900 16.817700  8.741110
36   1  0.8165  3.770680 16.969300 20.617000
37   1  0.7533  7.374510  4.720410  8.909500
38   1  0.8016  7.913920  6.151520 20.545700
39   1  0.7583  7.554160 17.483600  8.592210
40   1  0.7706  7.378970 16.777400 20.565800
41   1  0.8125 11.871900  5.769830  8.146380
42   1  0.8110 12.276800  5.336200 20.936600
43   1  0.7756 11.687600 16.971200  8.956410
44   1  0.8260 11.605400 17.926100 21.372500
45   1  0.8693 16.070700  5.391340  8.804460
46   1  0.8031 16.132300  5.588970 20.176900
47   1  0.7547 15.729200 16.024900  9.262080
48   1  0.7850 16.416000 16.986100 21.513300
49   1  0.9147  1.327860  6.118840  5.137220
50   1  0.7355  1.038340  6.265880 16.234900
51   1  0.8893  1.613290 17.887800  4.771930
52   1  0.7964  1.299120 17.946700 16.963400
53   1  0.7959  5.276230  6.094520  4.959540
54   1  0.8317  4.765060  6.011690 16.839500
55   1  0.8607  5.714020 18.196200  4.644930
56   1  0.7933  5.178610 18.332400 16.440300
57   1  0.9181  9.391950  6.087750  4.719780
58   1  0.8709  9.258970  5.659070 16.493900
59   1  0.8563  9.575010 18.261800  5.114630
60   1  0.7953  9.355910 17.248300 16.187700
61   1  0.7397 13.853400  7.159330  3.944830
62   1  0.8009 13.724900  6.356710 16.430400
63   1  0.8628 13.817300 17.705900  4.499710
64   1  0.8817 13.662900 17.865800 16.614400
65   1  0.8524  0.933298  2.004740  6.190120
66   1  0.7884  0.860313  2.152530 18.636000
67   1  0.8370  0.883153 13.552800  5.902350
68   1  0.7638  0.857696 14.388600 18.028700
69   1  0.8330  5.903980  2.125340  6.666820
70   1  0.7640  5.130260  2.504110 17.673300
71   1  0.8403  5.779260 14.356000  6.132530
72   1  0.7905  5.627420 12.836200 18.162100
73   1  0.8187  9.836210  1.965110  6.340050
74   1  0.7737  9.439170  2.082090 18.185000
75   1  0.8560  9.668080 13.905000  6.366220
76   1  0.8119 10.118200 13.797800 18.410200
77   1  0.7816 13.569000  2.743590  6.138740
78   1  0.7889 13.604100  1.816100 18.250900
79   1  0.8475 13.825200 13.416600  6.320790
80   1  0.8060 13.968800 13.341500 18.303800
81   1  0.7052  2.348000 10.347000  7.385800
82   1  0.8012  3.407760  9.142730 18.750600
83   1  0.8347  3.840210 21.435400  6.177760
84   1  0.7510  3.009700 21.306600 18.886400
85   1  0.7506  5.296700 10.604900  4.824660
86   1  0.7167  8.380250 10.135100 19.431200
87   1  0.8269  7.910690 21.467300  7.049480
88   1  0.8099  6.834230 21.840800 19.039700
89   1  0.7577 11.877800  9.855970  5.462850
90   1  0.8235 11.335700  9.965820 17.795200
91   1  0.8414 12.417100 21.348100  6.942720
92   1  0.8011 11.037400 21.326100 18.498100
93   1  0.7934 15.609200  9.416920  6.771940
94   1  0.7854 15.924700  9.531210 18.628200
95   1  0.8737 16.627300 20.880600  6.543880
96   1  0.8114 16.027400 21.313900 19.201600
97   1  0.8167  3.201150  8.037270 13.022700
98   1  0.8439  3.495700  8.202810  1.586260
99   1  0.7990  3.520120 19.749400 12.440500
100  1  0.8409  3.512400 19.188100  0.725880
101  1  0.8337  7.594440  8.032260 12.864600
102  1  0.8202  7.329490  8.186290  1.268740
103  1  0.8808  7.298220 18.874400 12.733200
104  1  0.8569  7.201210 19.609500  0.512519
105  1  0.7638 11.438000  7.940260 12.950500
106  1  0.7393 12.356500  7.743700  0.411609
107  1  0.8051 12.363200 18.899300 12.535000
108  1  0.7907 11.654100 19.223600  0.621243
109  1  0.8511 15.091200  7.751160 13.214900
110  1  0.7734 16.378500  7.863310 24.385200
111  1  0.7475 16.829800 19.886400 12.455800
112  1  0.8230 15.845600 18.889000  0.027720
113  1  0.7963  1.514570  4.433640  0.713619
114  1  0.8244  1.077750  3.939000 12.691500
115  1  0.8600  0.740612 15.233700  0.200435
116  1  0.7921  1.273760 15.482500 12.806600
117  1  0.7940  5.177770  3.973080  0.610494
118  1  0.8354  5.309770  3.885640 12.454500
119  1  0.7832  5.598280 15.406300  0.383647
120  1  0.9029  5.575370 15.397700 12.332500
121  1  0.8810  8.952120  4.771610 24.505100
122  1  0.8030  9.055320  3.746850 12.347400
123  1  0.7811  9.102810 15.414200  0.967018
124  1  0.7882  9.461480 15.472600 12.270000
125  1  0.7550 13.663000  3.738340 -0.120046
126  1  0.7992 13.166100  4.482740 11.989600
127  1  0.7666 13.936000 15.001700  0.883705
128  1  0.8083 13.795300 15.439500 12.200700
129  2 -0.5670  1.096450  3.416710  9.227290
130  2 -0.4207  1.176190  3.403520 21.247900
131  2 -0.5625  1.809930 14.927200  8.090640
132  2 -0.4793  1.132950 14.851100 21.184300
133  2 -0.6812  5.140010  2.990480  8.933620
134  2 -0.4273  5.918330  4.082280 21.508100
135  2 -0.5993  5.857840 15.139000  8.957320
136  2 -0.5669  5.105160 14.894400 21.000200
137  2 -0.5168 10.335100  3.497290  9.142200
138  2 -0.4523  9.669630  3.998700 21.489000
139  2 -0.5195  9.759970 14.686900  9.033500
140  2 -0.4372 10.469400 15.536500 20.915300
141  2 -0.4513 13.662500  3.483980  9.317300
142  2 -0.5001 14.135000  3.310080 20.765500
143  2 -0.5687 13.134000 14.510100  8.642330
144  2 -0.4005 14.265900 15.004500 21.206300
145  2 -0.6000  3.361060  8.378420  4.677250
146  2 -0.5771  3.443130  8.796480 15.924000
147  2 -0.6344  3.618870 19.416100  3.582360
148  2 -0.5340  2.860600 20.010000 15.654400
149  2 -0.4961  7.436040  8.068080  4.289690
150  2 -0.3743  7.332290  7.752640 16.424800
151  2 -0.4713  7.460290 20.960600  3.716680
152  2 -0.4732  7.958410 19.637100 15.558900
153  2 -0.6347 11.143400  7.869380  3.845270
154  2 -0.5904 11.654600  8.024490 15.533500
155  2 -0.5213 12.292600 19.725100  4.442710
156  2 -0.4335 10.957100 20.424000 15.526800
157  2 -0.4889 16.482800  7.861990  4.301780
158  2 -0.6263 15.686700  8.072490 15.642100
159  2 -0.4737 16.294700 19.787100  3.939410
160  2 -0.4345 16.022700 19.371400 16.267600
161  2 -0.6015  2.891330  9.637130 10.378700
162  2 -0.4322  3.341370  9.700930 22.797400
163  2 -0.4143  3.951220 20.870100  9.620840
164  2 -0.5738  3.724530 21.182200 22.513800
165  2 -0.2826  7.427810  9.051230 10.151600
166  2 -0.4700  7.064860  8.983750 22.995400
167  2 -0.5111  7.176050 21.237800 10.026700
168  2 -0.5034  7.590710 21.369600 22.014400
169  2 -0.3672 11.159400  9.449190 10.268300
170  2 -0.4078 12.007900  9.663720 22.000200
171  2 -0.5035 12.708400 20.139700  9.765200
172  2 -0.6397 11.526400 20.838900 22.459900
173  2 -0.4060 15.798500  9.554530 10.319100
174  2 -0.5291 15.557600  9.818210 22.661200
175  2 -0.4651 16.111300 20.659800 10.077900
176  2 -0.7181 15.701900 20.637900 22.184100
177  2 -0.4272  0.893264  2.485270  3.156380
178  2 -0.4266  1.538770  2.610280 15.531900
179  2 -0.4867  1.070700 14.133900  2.994460
180  2 -0.5355  1.239610 13.987700 14.945600
181  2 -0.4770  4.629220  2.558140  3.336050
182  2 -0.5456  5.391670  2.175790 14.935000
183  2 -0.5941  5.573740 13.999800  2.761780
184  2 -0.4019  5.307360 13.847300 15.211400
185  2 -0.3590  9.493410  2.863340  2.412700
186  2 -0.4815  8.723690  2.791540 15.421200
187  2 -0.6451  9.338360 13.762000  3.197700
188  2 -0.4957  9.783210 14.329900 15.149400
189  2 -0.5661 13.344600  2.326560  3.189410
190  2 -0.5036 12.960900  2.040380 14.905300
191  2 -0.5731 13.996900 13.995200  3.824510
192  2 -0.5209 13.350400 13.881500 15.327900
193  2 -0.5769  0.803043 10.623000  4.981280
194  2 -0.5039  0.533227 11.034100 16.643000
195  2 -0.5682  1.431650 22.449100  5.321910
196  2 -0.4558  0.631222 22.275300 16.989900
197  2 -0.6565  3.648730 12.720900  5.371210
198  2 -0.5148  6.351740 10.632500 16.776100
199  2 -0.5682  5.729330 23.191400  4.842400
200  2 -0.6635  5.045820 22.511900 17.338400
201  2 -0.3864  8.852620 10.756200  5.042450
202  2 -0.6366  9.996190 11.622700 16.456300
203  2 -0.5583  9.628960 22.921000  5.214030
204  2 -0.6940  8.844280 22.701400 17.189800
205  2 -0.7485 14.308900 10.810500  4.632390
206  2 -0.5609 13.392900 10.960600 16.320500
207  2 -0.4918 14.676100 23.083400  5.271250
208  2 -0.4387 13.876500 21.871500 17.050200
209  2 -0.5390  2.704540  0.256275  8.018420
210  2 -0.4886  2.845780  0.336296 20.721500
211  2 -0.3647  5.384240 10.622600  7.559180
212  2 -0.4507  2.457840 11.789100 19.266400
213  2 -0.7380  7.941060  0.849512  7.852960
214  2 -0.4760  6.338010  1.338530 20.288600
215  2 -0.2952  7.284880 12.566700  7.666860
216  2 -0.6660  7.815440 12.358200 20.088600
217  2 -0.5264 12.121300  0.348851  8.380280
218  2 -0.6506 11.450200  0.442687 19.669400
219  2 -0.5218 11.843800 11.461500  7.642530
220  2 -0.5609 11.808800 12.334600 19.830200
221  2 -0.3545 15.560200  0.679211  8.173830
222  2 -0.4985 16.054400  0.562762 20.530800
223  2 -0.7140 15.789000 12.594100  7.997720
224  2 -0.5000 15.968400 12.361600 19.727600
225  2 -0.6000  3.670010  5.300210  2.479490
226  2 -0.6036  3.382630  5.666260 14.709600
227  2 -0.3990  3.325660 16.427200  1.931440
228  2 -0.5667  3.870980 16.983800 13.526600
229  2 -0.5657  7.525080  5.449900  2.063470
230  2 -0.5317  7.087470  5.480760 13.856300
231  2 -0.5572  7.633240 17.517100  2.882950
232  2 -0.6285  7.493680 16.532600 13.832300
233  2 -0.4901 11.548800  5.359810  1.388280
234  2 -0.5806 11.049600  4.786590 13.848100
235  2 -0.4768 11.374000 16.676900  2.762400
236  2 -0.6604 11.603200 16.785600 13.485700
237  2 -0.4757 15.871200  5.261610  2.171140
238  2 -0.5960 15.739100  5.125530 13.826200
239  2 -0.5807 15.878300 16.693100  1.867230
240  2 -0.4649 15.622700 16.095900 14.570800
241  2 -0.4862  0.624783  6.635990 11.320600
242  2 -0.4839  1.825910  6.654380 23.572300
243  2 -0.5322  1.847390 18.182900 10.907500
244  2 -0.6432  1.345860 17.965800 23.586900
245  2 -0.5324  5.187630  6.594440 11.381700
246  2 -0.4727  5.244190  6.539120 24.366800
247  2 -0.5901  5.540400 18.045800 10.553600
248  2 -0.6339  5.633080 18.164800 23.818300
249  2 -0.4944  9.426500  6.488710 11.051700
250  2 -0.5280 10.236000  6.676760 22.972200
251  2 -0.6118  9.689530 18.277800 10.773900
252  2 -0.5618  9.134560 18.380500 23.812600
253  2 -0.5415 13.791200  6.845920 10.680700
254  2 -0.5977 14.540700  6.424130 22.749800
255  2 -0.6312 14.378900 17.703600 10.876600
256  2 -0.6563 13.492000 17.470000 23.744200
257  2 -0.6372  1.159860  9.488540  1.622170
258  2 -0.4026  0.452196  9.959710 13.424900
259  2 -0.5399  0.553026 21.031600  0.870098
260  2 -0.5949  1.132260 22.466900 13.685500
261  2 -0.7616  5.135570 10.350400  1.605340
262  2 -0.6533  5.474300 10.239300 13.372200
263  2 -0.6397  5.347740 22.158500  1.165720
264  2 -0.6037  5.363390 21.126500 13.658000
265  2 -0.6266  9.481950 10.164600  1.066510
266  2 -0.7376  9.599250 10.061800 13.476200
267  2 -0.4753  9.606540 22.279700  0.799680
268  2 -0.5272  9.241460 21.200800 12.688400
269  2 -0.5844 13.302600 10.963500  0.601488
270  2 -0.4759 13.639100 10.697600 13.139600
271  2 -0.6503 13.477900 21.434400  1.237770
272  2 -0.5932 14.359000 21.101300 13.624800
273  2 -0.6594  3.259680  2.192480 12.261700
274  2 -0.5200  2.955180  1.645260 24.074400
275  2 -0.5787  3.594670 13.315300 12.154100
276  2 -0.6263  2.788210 13.632500 -0.417473
277  2 -0.5284  7.260510  1.547950 12.244500
278  2 -0.4224  7.453980  2.062120 23.739000
279  2 -0.6654  7.359540 13.369400 11.712500
280  2 -0.6318  7.605540 13.460500 23.894000
281  2 -0.5072 11.296400  1.325620 11.509400
282  2 -0.5125 11.499600  2.119040 23.820000
283  2 -0.6477 11.828800 13.092100 11.470100
284  2 -0.5167 11.206700 13.695200 24.020900
285  2 -0.4780 15.654400  2.040220 11.638800
286  2 -0.4821 16.005000  1.429240 24.573400
287  2 -0.6489 16.062900 13.908100 12.230100
288  2 -0.6910 15.828500 13.162900  0.133263
289  2 -0.5899  3.290490  4.357440  6.287400
290  2 -0.7190  2.713060  4.297200 17.903900
291  2 -0.5391  3.972070 16.395600  5.526120
292  2 -0.5906  3.692490 16.565900 17.608400
293  2 -0.6022  8.042280  3.637130  5.306260
294  2 -0.6069  7.087300  4.525670 18.111100
295  2 -0.6432  8.060840 16.175500  5.610900
296  2 -0.4705  7.149250 15.376400 17.549100
297  2 -0.5242 11.761000  4.540830  4.811390
298  2 -0.5430 11.703900  4.203590 17.932600
299  2 -0.5128 11.695700 15.977400  5.995210
300  2 -0.5032 12.206400 16.204000 17.834400
301  2 -0.5309 16.331400  4.515630  5.707480
302  2 -0.5924 15.577300  4.135800 17.518200
303  2 -0.4921 16.113900 15.701000  5.873950
304  2 -0.5347 15.831400 16.381400 18.216000
305  2 -0.5897  0.686625  7.450380  7.677480
306  2 -0.5924  1.368110  7.605870 19.712700
307  2 -0.4616  2.099870 19.048600  7.275180
308  2 -0.6379  1.322240 18.889300 19.865700
309  2 -0.3632  5.686060  6.975950  7.895070
310  2 -0.6183  5.243710  7.161170 19.478300
311  2 -0.6397  5.656090 19.414200  7.104510
312  2 -0.5609  5.424620 19.067300 19.672400
313  2 -0.4410  9.401360  6.506540  7.583390
314  2 -0.5901  9.795640  7.744880 18.651300
315  2 -0.7088  9.976550 19.740300  7.142150
316  2 -0.5249  9.070570 19.017600 19.205000
317  2 -0.6168 14.192200  6.881670  7.349690
318  2 -0.5665 14.004100  7.394020 19.183600
319  2 -0.4226 14.773800 19.007600  7.401950
320  2 -0.4680 13.469000 19.418800 19.455400

