Generated by pymatgen.io.lammps.data.LammpsData

320  atoms

  2  atom types

0.000000 16.864293  xlo xhi
0.000000 23.165087  ylo yhi
0.000000 24.472453  zlo zhi

Masses

1  208.9804
2   78.9600

Atoms

1    1  0.7922  0.505690 11.479600 11.334900
2    1  0.8660  1.415180 11.255400 23.129400
3    1  0.7429  0.636873 22.845700 10.597300
4    1  0.8900  0.757261 22.918200 22.608800
5    1  0.8294  5.181100 10.633400 11.240800
6    1  0.8060  5.451440 11.999600 23.484100
7    1  0.7680  5.266020  0.442762 10.989200
8    1  0.7305  5.580460  0.344023 23.144100
9    1  0.8033  9.859220 11.864500 11.314200
10   1  0.8485  9.499120 11.590600 22.600900
11   1  0.7786  9.087490 23.070500 10.518200
12   1  0.7571  9.207110 22.549200 22.577800
13   1  0.7815 13.424000 11.436200 10.631200
14   1  0.7987 13.936700 11.636800 22.603300
15   1  0.7295 14.121300 22.901800 10.771300
16   1  0.7652 13.745300 22.713300 23.090900
17   1  0.8734  3.056380  0.527235  2.142350
18   1  0.7159  3.256990  1.776870 14.889700
19   1  0.7416  3.014690 12.909600  2.383510
20   1  0.8505  3.649010 11.722800 14.864600
21   1  0.7957  7.227250  0.834986  2.492050
22   1  0.8351  6.789050 23.364200 15.121400
23   1  0.7394  7.831860 11.404200  1.812910
24   1  0.7998  7.453530 12.163300 14.523000
25   1  0.7373 12.383000  1.336920  3.048600
26   1  0.7999 11.376600  0.462081 15.079900
27   1  0.7976 11.930300 11.902600  1.802110
28   1  0.7615 11.590800 12.230300 14.868200
29   1  0.8420 16.018500  0.034130  2.595650
30   1  0.8007 15.764000  0.287880 14.111600
31   1  0.8358 16.054100 11.923100  2.406860
32   1  0.7454 15.761900 12.745800 14.740800
33   1  0.7766  3.305560  5.974140  9.244330
34   1  0.8529  3.613210  5.564780 20.111600
35   1  0.8161  2.969850 16.873200  8.007570
36   1  0.8101  3.482380 16.919300 20.768100
37   1  0.8177  7.155440  4.856340  8.875480
38   1  0.8385  7.714100  6.332830 20.663200
39   1  0.8006  7.688620 17.338700  8.806830
40   1  0.8756  7.736460 16.732400 20.722100
41   1  0.8235 11.328700  5.506860  8.691370
42   1  0.8655 11.289100  5.649920 21.176900
43   1  0.8946 11.734000 17.891100  8.814280
44   1  0.8552 12.270200 17.455900 20.524200
45   1  0.8236 15.514800  5.066140  8.995460
46   1  0.8571 15.761400  5.487610 21.122500
47   1  0.8532 15.762700 15.301100  9.346580
48   1  0.7798 15.794800 17.369700 21.000200
49   1  0.8219  0.867040  5.582950  4.856230
50   1  0.7981  0.563381  5.692540 17.458800
51   1  0.7877  1.342290 18.295300  4.097460
52   1  0.8335  1.591910 17.285000 16.994300
53   1  0.8312  4.932480  5.510950  4.797640
54   1  0.8308  5.616090  7.251010 17.055600
55   1  0.7628  5.548480 18.284100  4.130870
56   1  0.8459  5.489430 18.312600 15.998800
57   1  0.7956  9.495830  6.281680  4.394790
58   1  0.8342  9.673710  6.056600 16.481400
59   1  0.7620  9.490890 18.636200  4.170210
60   1  0.8337  9.464440 17.659900 16.754600
61   1  0.8698 13.250900  6.482210  4.515710
62   1  0.8222 13.178100  5.898410 16.298600
63   1  0.8195 14.390700 17.231400  4.668700
64   1  0.8501 13.970700 17.133300 16.272700
65   1  0.8652  1.206980  1.843820  6.794050
66   1  0.7613  1.539270  2.752290 18.757600
67   1  0.8107  1.194470 13.788300  6.413640
68   1  0.8209  1.633600 13.516000 18.486900
69   1  0.8670  5.215510  1.848740  6.822220
70   1  0.7110  5.180080  1.497520 18.349500
71   1  0.8441  6.165850 14.222400  5.579520
72   1  0.7926  5.230340 13.134900 18.787000
73   1  0.7705 10.042700  2.330930  5.912020
74   1  0.8227  9.732150  2.171530 18.248000
75   1  0.8681  9.944080 14.058100  6.385570
76   1  0.8130  9.222330 13.862700 17.840000
77   1  0.7458 13.587500  1.664600  6.447740
78   1  0.7377 13.874400  1.708730 18.447800
79   1  0.7986 13.850300 14.025200  5.879870
80   1  0.8718 13.949400 13.798200 18.329700
81   1  0.7892  2.760250 10.666400  7.562600
82   1  0.8411  2.743180  9.817950 18.922900
83   1  0.7997  2.704470 21.367800  6.593700
84   1  0.8334  2.846160 21.352100 18.989600
85   1  0.7633  5.230800 10.535700  4.511820
86   1  0.7931  7.617720 10.314200 19.365200
87   1  0.8518  7.337890 21.740300  7.219020
88   1  0.7540  7.469420 21.501700 19.169700
89   1  0.7554 11.098500 10.772300  5.637610
90   1  0.8319 11.491100  9.997060 17.656100
91   1  0.7699 12.240300 20.996900  6.503290
92   1  0.7082 11.409300 21.302100 18.830500
93   1  0.8447 15.867100  9.607610  6.452800
94   1  0.8635 15.861000  9.847720 18.862300
95   1  0.7594 15.606600 20.812900  6.955020
96   1  0.7339 14.805100 21.567500 19.173700
97   1  0.7551  2.624710  7.207710 13.255600
98   1  0.8086  3.065430  7.908310  1.356580
99   1  0.8664  3.437910 19.073300 12.343200
100  1  0.8363  3.292250 19.652900  0.420524
101  1  0.8631  7.678290  8.115570 13.263200
102  1  0.7359  7.114390  7.936060  1.328990
103  1  0.8552  7.635330 18.827400 12.820300
104  1  0.6957  7.485460 19.669100  0.315247
105  1  0.8312 11.761500  8.569550 12.562300
106  1  0.8310 11.916100  8.351780  0.242244
107  1  0.8664 11.608100 19.565900 12.934200
108  1  0.8705 12.324800 19.320700  0.682946
109  1  0.8769 15.602700  7.772530 13.343800
110  1  0.8426 16.337100  7.825530 24.272300
111  1  0.8238 15.364400 19.821400 13.358000
112  1  0.8310 15.655700 19.756600  0.156297
113  1  0.8410  0.164061  3.743130  1.180010
114  1  0.7944  1.384160  3.864020 12.436600
115  1  0.8111  0.855757 15.696900 24.119700
116  1  0.8413  1.998220 15.864500 12.608800
117  1  0.7660  4.837920  3.840100 24.282900
118  1  0.8457  5.519190  4.355600 13.661300
119  1  0.8186  5.039150 15.391800 24.712200
120  1  0.7685  5.803840 15.275900 12.648200
121  1  0.8280 10.026100  4.156320  0.059217
122  1  0.7989  9.598260  3.494500 12.520000
123  1  0.8028  9.208970 16.013200  1.327790
124  1  0.7735  9.155000 15.361300 11.933200
125  1  0.7469 13.754100  3.645710 -0.311020
126  1  0.8942 13.453500  3.737750 11.964700
127  1  0.8129 13.714400 15.027100 24.372400
128  1  0.9081 14.057300 15.449300 12.598500
129  2 -0.4628  1.022470  3.336300  9.122970
130  2 -0.4609  1.639930  4.073780 21.400600
131  2 -0.5422  1.990840 14.308700  9.150470
132  2 -0.4258  1.597920 14.369000 21.558100
133  2 -0.5831  4.761720  3.749840  9.088740
134  2 -0.4642  6.020170  4.033770 20.961000
135  2 -0.4607  5.597630 15.113300  8.714700
136  2 -0.4889  5.396580 14.470200 20.983800
137  2 -0.5391  9.855640  3.249630  9.147190
138  2 -0.4216  9.505580  3.587130 21.165300
139  2 -0.5185 10.131100 15.569700  8.810300
140  2 -0.3423 10.122800 15.149100 21.032300
141  2 -0.5070 13.101000  3.227070  9.247710
142  2 -0.5197 13.636800  3.242630 21.418100
143  2 -0.4907 13.419400 15.256500  9.925790
144  2 -0.5101 13.786300 15.145300 21.299600
145  2 -0.5112  3.296740  8.189740  4.315500
146  2 -0.5150  2.701760  7.655170 16.418300
147  2 -0.5504  3.234170 20.334800  3.455970
148  2 -0.3513  2.868830 19.716900 15.471800
149  2 -0.5586  7.133450  8.169470  3.948770
150  2 -0.4822  7.975170  8.535520 16.523200
151  2 -0.5522  7.335270 20.384400  3.549140
152  2 -0.5340  7.656230 19.623700 15.492000
153  2 -0.5312 11.732500  8.376170  3.174430
154  2 -0.5581 12.026500  8.553420 15.590500
155  2 -0.4346 12.398400 19.539000  3.779010
156  2 -0.5545 11.612400 19.244700 16.432300
157  2 -0.3908 15.921800  7.527760  4.116220
158  2 -0.4751 15.526700  7.778930 16.853900
159  2 -0.4815 15.502600 19.517500  3.613900
160  2 -0.3265 16.481700 19.741400 16.766800
161  2 -0.5445  2.348220  9.329560 10.613000
162  2 -0.3847  2.785330  9.000140 22.320100
163  2 -0.3929  3.127930 20.423500  9.418150
164  2 -0.4021  3.451240 20.681200 22.285500
165  2 -0.2422  7.998360  9.666000 10.189800
166  2 -0.5450  7.174900 10.096600 22.543600
167  2 -0.4778  6.948230 21.132800 10.095100
168  2 -0.5969  7.066090 20.992000 21.987700
169  2 -0.4925 11.473000  9.969220  9.788780
170  2 -0.4690 11.900900  9.813610 21.883100
171  2 -0.4915 11.550500 20.388500  9.799330
172  2 -0.5081 11.607500 20.543900 22.491200
173  2 -0.4979 15.374700  9.580710 10.322300
174  2 -0.5468 15.915800  9.930480 21.779300
175  2 -0.4800 16.555400 20.432300 10.197700
176  2 -0.6754 15.715900 20.864300 22.314200
177  2 -0.6102  0.910357  1.841720  3.139710
178  2 -0.5217  0.030689  2.605150 14.981300
179  2 -0.5468  0.626021 14.095600  3.131110
180  2 -0.4804  1.899640 14.314600 15.135900
181  2 -0.5324  5.180160  2.557130  2.619270
182  2 -0.5915  5.879250  2.558320 15.852200
183  2 -0.6668  6.102690 13.210600  3.116240
184  2 -0.5553  5.266720 13.653000 15.449500
185  2 -0.5302  9.971150  2.804470  3.236210
186  2 -0.5510  9.814950  2.766570 15.595700
187  2 -0.6530 10.114400 12.713600  3.678000
188  2 -0.5251  9.783310 14.358600 14.880300
189  2 -0.5330 14.190900  3.525610  3.160830
190  2 -0.4603 13.347600  2.458900 14.819600
191  2 -0.5604 13.514000 13.705700  2.831880
192  2 -0.6644 13.561400 14.937800 15.266400
193  2 -0.5198  0.821152 10.872100  4.708650
194  2 -0.5781  1.440050 11.029300 16.936600
195  2 -0.5907  0.609370 22.461800  5.267580
196  2 -0.4306  1.328560 22.946300 17.280300
197  2 -0.6338  3.710130 12.775800  5.956670
198  2 -0.5874  5.511450 10.210000 17.654500
199  2 -0.5811  4.923280 23.037100  5.442700
200  2 -0.6114  5.197570 22.301300 16.654500
201  2 -0.2128  8.318230 10.275400  6.563870
202  2 -0.6507  9.165940 11.473600 16.947500
203  2 -0.4406  9.368710 22.320400  5.360270
204  2 -0.6342  9.532080 22.462300 16.933600
205  2 -0.5103 13.572200 10.852800  4.370150
206  2 -0.6085 13.966500 11.426000 16.980900
207  2 -0.5999 13.818700 22.383300  4.588700
208  2 -0.6035 13.880700 22.637300 16.776200
209  2 -0.5825  2.748460  0.557367  8.493480
210  2 -0.5491  2.913100  0.321077 20.865900
211  2 -0.3481  5.031350 10.306100  8.189340
212  2 -0.5860  3.102030 11.879300 20.390400
213  2 -0.6562  7.288070  1.071990  8.215160
214  2 -0.5732  7.883670  0.965818 20.022200
215  2 -0.2331  7.926410 12.197100  7.874790
216  2 -0.5590  8.008410 12.876100 20.284200
217  2 -0.5472 11.485100  0.185841  7.780830
218  2 -0.6210 11.780100  0.417202 20.316400
219  2 -0.5552 12.329800 12.813400  7.591100
220  2 -0.4577 11.648500 12.543800 19.478200
221  2 -0.6154 15.576900  0.402340  8.366870
222  2 -0.5139 16.845500  1.036320 19.931800
223  2 -0.6454 15.927900 12.906500  7.853920
224  2 -0.5175 16.157900 12.603700 19.637500
225  2 -0.5097  2.623530  4.895200  2.275900
226  2 -0.6721  3.170210  5.092450 14.573100
227  2 -0.5805  2.875480 17.003300  1.547890
228  2 -0.6549  3.999570 16.821200 13.868800
229  2 -0.4973  7.833810  5.097110  2.460820
230  2 -0.5951  7.940360  5.519230 13.890500
231  2 -0.6660  6.695580 16.643000  1.878360
232  2 -0.5734  7.630530 16.371300 14.504200
233  2 -0.5218 11.889000  5.373810  1.449170
234  2 -0.5127 11.422000  5.376330 13.811000
235  2 -0.4804 11.999900 16.461500  1.764130
236  2 -0.4135 11.510300 16.839700 12.998900
237  2 -0.4747 15.274300  5.948840  1.319950
238  2 -0.4723 15.053900  5.275660 14.217500
239  2 -0.4930 15.402800 16.800900  1.560770
240  2 -0.5293 16.477900 17.316000 14.024000
241  2 -0.6166  0.528230  6.441690 11.706700
242  2 -0.4862  1.160220  5.776420 24.006000
243  2 -0.4424  0.991958 17.545100 10.918500
244  2 -0.5743  1.294020 18.298800 23.264800
245  2 -0.5452  5.619450  7.183610 11.422400
246  2 -0.4321  5.256990  7.032620 23.486500
247  2 -0.6284  5.698620 18.021400 11.211800
248  2 -0.5059  5.815960 17.633400 22.670900
249  2 -0.4269  9.520300  6.742390 11.140600
250  2 -0.5927  9.835260  6.720160 23.115000
251  2 -0.5647  9.647060 18.028800 11.089000
252  2 -0.4659  9.599430 17.719700 23.690800
253  2 -0.5337 13.562800  6.340730 11.335300
254  2 -0.5627 13.842800  6.488090 22.657000
255  2 -0.4948 13.943900 18.130500 11.818700
256  2 -0.6121 13.812100 18.171300 23.251400
257  2 -0.6100  1.234410  9.697400  1.281470
258  2 -0.4972  0.590472 10.230800 13.874000
259  2 -0.5677  1.121710 21.819200  0.641363
260  2 -0.5141  0.901814 21.481300 13.567700
261  2 -0.7246  5.265590 10.219900  1.645480
262  2 -0.6842  5.719530  9.906470 14.026100
263  2 -0.6373  4.856690 22.156900  1.021750
264  2 -0.4721  5.253290 21.066800 13.245200
265  2 -0.7170  9.790110 10.073100  0.593865
266  2 -0.6701  9.499140 10.220100 13.715600
267  2 -0.4592 10.177700 21.007400  1.541440
268  2 -0.5262  9.441220 21.086500 12.901900
269  2 -0.5940 14.449900 10.123200  0.804049
270  2 -0.6351 13.633100 10.031200 13.240700
271  2 -0.5842 13.896100 21.895300  1.226330
272  2 -0.7182 13.607800 21.765300 13.418300
273  2 -0.6668  3.569930  2.601650 12.175600
274  2 -0.4675  2.476420  2.384300 24.095600
275  2 -0.5505  3.532520 12.839400 12.211100
276  2 -0.6624  2.884950 13.437000 -0.332061
277  2 -0.6365  6.761180  2.039420 12.844800
278  2 -0.6111  7.476820  1.931370 24.333600
279  2 -0.6731  7.339550 13.102000 11.562800
280  2 -0.5840  7.185060 13.845000 24.040400
281  2 -0.5534 11.456300  1.553060 11.975800
282  2 -0.5421 11.487800  1.666000 -0.118377
283  2 -0.6527 11.672500 13.559100 12.262000
284  2 -0.5564 11.460600 13.498200 23.815000
285  2 -0.6331 15.643100  2.137670 11.471400
286  2 -0.6269 15.968000  1.298320 24.344900
287  2 -0.7353 16.247800 13.841600 12.124900
288  2 -0.6245 16.336000 13.295000 23.745600
289  2 -0.5921  2.962740  4.007040  5.980120
290  2 -0.6789  3.597190  4.131000 17.892800
291  2 -0.5783  3.534090 16.502200  5.127510
292  2 -0.5784  3.769440 15.519300 18.140100
293  2 -0.5412  7.128610  4.089100  5.947790
294  2 -0.4643  7.605920  4.986680 17.900600
295  2 -0.6429  8.252480 15.685900  5.503210
296  2 -0.5495  7.229790 16.336800 17.988900
297  2 -0.6609 11.755000  4.496260  5.953960
298  2 -0.5740 11.543800  4.693520 18.425400
299  2 -0.5400 11.707000 16.106300  5.670730
300  2 -0.5688 12.041800 15.991800 17.929100
301  2 -0.5554 15.743000  3.914970  6.533800
302  2 -0.6293 15.688500  4.333020 18.881300
303  2 -0.6079 16.323000 15.661800  6.278380
304  2 -0.6074 16.246700 15.507400 17.825700
305  2 -0.4949  1.103470  7.959560  7.276980
306  2 -0.5725  1.167880  7.323860 19.714700
307  2 -0.5071  0.760396 18.649300  6.989590
308  2 -0.5259  1.385650 18.493400 19.521000
309  2 -0.3669  5.216790  6.827520  7.286130
310  2 -0.5604  5.323840  7.748890 19.843200
311  2 -0.4969  5.713160 18.993700  7.359160
312  2 -0.4856  5.230540 19.416700 18.979500
313  2 -0.3879  9.409490  6.945210  7.337520
314  2 -0.5549  9.748800  7.592640 19.305000
315  2 -0.5427  9.431740 19.278200  6.906260
316  2 -0.5548  9.682520 19.110200 19.811200
317  2 -0.5072 14.092900  7.545250  6.863390
318  2 -0.3795 13.861300  7.833380 19.626400
319  2 -0.5471 14.079700 18.547100  7.642490
320  2 -0.6330 14.265300 18.737800 19.196200

