Generated by pymatgen.io.lammps.data.LammpsData

320  atoms

  2  atom types

0.000000 24.602375  xlo xhi
0.000000 17.102682  ylo yhi
0.000000 27.370788  zlo zhi

Masses

1  208.9804
2   78.9600

Atoms

1    1  0.7527 21.231300  1.323610  0.730557
2    1  0.7265 -1.472980  1.255070 14.093900
3    1  0.7614 21.059500  9.983320  0.731473
4    1  0.7420 -1.332160  9.767850 14.165800
5    1  0.7352  9.078260 18.520400  0.652160
6    1  0.7363 10.854200  1.218020 14.120200
7    1  0.7405  8.899790  9.808060  0.520344
8    1  0.7427 10.771100  9.940040 14.120300
9    1  0.7396  4.491090  5.568860 10.277900
10   1  0.7831  2.902710  5.538110 24.109600
11   1  0.7786  4.519840 14.173000 10.199900
12   1  0.8052  2.856640 14.153700 24.106700
13   1  0.7667 16.877000  5.612600 10.152800
14   1  0.7920 15.292200  5.631060 24.119500
15   1  0.7656 16.752700 14.186900 10.145100
16   1  0.7763 15.148200 14.078600 24.120200
17   1  0.7710  4.587260  5.595600  6.266360
18   1  0.7324  2.538710  5.523780 20.074000
19   1  0.7559  4.679260 14.103200  6.167410
20   1  0.7226  2.731990 14.115800 20.010400
21   1  0.7473 17.014300  5.645060  6.109520
22   1  0.7211 15.018900  5.654120 20.069700
23   1  0.7488 17.142700 14.087500  6.176620
24   1  0.7355 14.979900 14.200200 20.075600
25   1  0.7870 -1.677170 18.382300 10.060500
26   1  0.7630 21.442000 18.369800 24.069400
27   1  0.7671 -1.494620  9.869750 10.142700
28   1  0.7872 21.456300  9.893000 24.067100
29   1  0.7902 10.765700 18.465400 10.076100
30   1  0.7848  9.145610 18.431400 24.128900
31   1  0.7975 10.673100  9.757890 10.081500
32   1  0.7763  8.982260  9.838840 23.933900
33   1  0.7604 21.094800  5.560050  0.714208
34   1  0.7325 -1.429880  5.508730 14.288300
35   1  0.7442 21.089900 14.179300  0.749572
36   1  0.7586 -1.307470 14.222900 14.260000
37   1  0.7504  9.003750  5.664820  0.573726
38   1  0.7375 10.837700  5.748020 14.229200
39   1  0.7426  8.937720 14.108800  0.624361
40   1  0.7285 10.790000 14.087500 14.161100
41   1  0.8168 -1.664850  5.536180 10.118200
42   1  0.7687 21.293300  5.639630 24.054200
43   1  0.8040 -1.682580 14.129100 10.102600
44   1  0.7703 21.529000 14.133500 24.050700
45   1  0.7671 10.679200  5.636300 10.147600
46   1  0.7808  9.028990  5.553490 23.896500
47   1  0.7758 10.672200 14.187300  9.950010
48   1  0.7696  9.067610 14.163100 23.937400
49   1  0.7634  4.587760 18.436600  6.148090
50   1  0.7439  2.706420 18.329800 20.025200
51   1  0.7625  4.605540  9.913430  6.126250
52   1  0.7454  2.650930  9.809230 20.067500
53   1  0.7638 17.066200 18.503500  6.053110
54   1  0.7283 15.071400  1.274660 20.123700
55   1  0.7485 17.064900  9.892730  6.157460
56   1  0.7329 15.098100  9.925600 20.084900
57   1  0.7651  4.499550 18.386100 10.126600
58   1  0.7997  2.935270  1.278180 24.219200
59   1  0.7751  4.517260  9.970660 10.220500
60   1  0.7894  2.908420  9.860180 24.135300
61   1  0.7804 16.826300 18.442000 10.176900
62   1  0.7775 15.324600  1.305330 24.157000
63   1  0.7734 16.874500  9.856210 10.349000
64   1  0.7888 15.111700  9.871970 24.092000
65   1  0.7856 -0.420194  7.827390 26.331500
66   1  0.8124  1.341220  7.694390 12.036300
67   1  0.7887 -0.382310 16.216600 26.290400
68   1  0.8131  1.503250 16.336800 12.059200
69   1  0.8090 11.916500  7.729970 26.091200
70   1  0.8100 13.562400  7.888540 12.090000
71   1  0.7556 11.962800 16.296400 26.245300
72   1  0.7916 13.654000 16.319900 12.053900
73   1  0.8230  6.094440  7.716090 25.817500
74   1  0.7883  7.838270  7.792520 12.226300
75   1  0.8211  6.186150 16.253800 25.904100
76   1  0.8027  7.835660 16.293700 12.139800
77   1  0.8185 18.354300  7.729390 25.910800
78   1  0.8039 20.255900  7.728740 12.257900
79   1  0.8285 18.445400 16.254800 25.965100
80   1  0.7894 20.124100 16.246600 12.254800
81   1  0.7739 -0.443680  3.381110 26.154400
82   1  0.8101  1.328670  3.348480 11.964500
83   1  0.7858 -0.343268 12.033300 26.186500
84   1  0.8172  1.409650 12.036200 12.020000
85   1  0.7864 11.988800  3.549240 26.176800
86   1  0.8280 13.633000  3.422980 11.992800
87   1  0.7816 11.922000 12.054200 26.065900
88   1  0.8060 13.514600 12.065500 12.003200
89   1  0.8300  6.238530  3.404630 25.853200
90   1  0.7816  7.988640  3.420020 12.290900
91   1  0.8255  6.076080 12.001300 25.936600
92   1  0.8093  7.716950 12.058200 12.163200
93   1  0.8340 18.327600  3.552710 25.930500
94   1  0.7752 20.082000  3.354360 12.275500
95   1  0.8172 18.353500 11.971600 25.885400
96   1  0.8003 20.243500 12.000000 12.283600
97   1  0.7922  1.568720  7.763290  8.078810
98   1  0.8195 -0.145471  7.682190 22.281500
99   1  0.7998  1.630730 16.199800  8.090440
100  1  0.8173 -0.036963 16.335500 22.114100
101  1  0.7753 14.016200  7.910420  8.079780
102  1  0.8390 12.271400  7.762530 22.085500
103  1  0.7854 13.961200 16.251000  8.018060
104  1  0.8163 12.302900 16.329600 22.176500
105  1  0.8125  7.350870  7.827470  8.363380
106  1  0.7790  5.718500  7.644810 21.899900
107  1  0.8191  7.426100 16.297000  8.136940
108  1  0.7851  5.775620 16.306500 21.983000
109  1  0.8326 19.913200  7.742010  8.397500
110  1  0.7835 17.965500  7.745030 21.847200
111  1  0.8390 19.764200 16.164100  8.322690
112  1  0.7977 18.123900 16.337400 22.026700
113  1  0.8011  1.562620  3.472430  8.115480
114  1  0.7794 -0.075767  3.526490 22.199400
115  1  0.7730  1.720080 12.127000  8.060240
116  1  0.8137 -0.031175 11.934400 22.152900
117  1  0.7785 13.891100  3.484760  7.991910
118  1  0.8381 12.286600  3.499280 22.161900
119  1  0.7812 14.076900 12.006300  7.953370
120  1  0.8338 12.270500 12.004000 22.078000
121  1  0.8229  7.413290  3.443190  8.309950
122  1  0.8066  5.788170  3.515330 21.978000
123  1  0.8279  7.466130 12.041200  8.133220
124  1  0.8057  5.734300 11.943100 21.962200
125  1  0.8344 19.847600  3.371040  8.466750
126  1  0.8094 18.090600  3.418600 22.034900
127  1  0.8236 19.906800 11.894000  8.329540
128  1  0.7997 18.104500 12.091200 22.005500
129  2 -0.8115  7.634910  5.612040 10.369300
130  2 -0.8375  5.893970  5.561520 23.922700
131  2 -0.8131  7.607180 14.164100 10.119900
132  2 -0.8088  5.894880 14.091300 23.954400
133  2 -0.8257 20.146200  5.553670 10.319300
134  2 -0.8326 18.190700  5.545530 23.910300
135  2 -0.8121 20.042600 14.076600 10.243700
136  2 -0.8084 18.196400 14.149400 24.017000
137  2 -0.8278  1.409650  5.541340 10.123700
138  2 -0.8189 -0.261293  5.631760 24.234800
139  2 -0.8345  1.521020 14.207400 10.126700
140  2 -0.8176 -0.063641 14.109000 24.170100
141  2 -0.7882 13.847400  5.647510  9.997710
142  2 -0.8008 12.126300  5.600500 24.049500
143  2 -0.8263 13.746200 14.105500  9.898050
144  2 -0.8276 12.091500 14.106500 24.045800
145  2 -0.0998 20.232600  3.456090  3.661630
146  2 -0.0842 -0.792252  3.341130 17.403700
147  2 -0.1054 20.148200 11.898100  3.750730
148  2 -0.1353 -0.499115 11.988900 17.084500
149  2 -0.1026  7.914780  3.590510  3.674580
150  2 -0.1131 11.810300  3.502860 17.158700
151  2 -0.1230  7.857720 11.897400  3.483540
152  2 -0.1025 11.740600 12.036300 17.311100
153  2 -0.1422 20.160000  7.766430  3.422830
154  2 -0.1065 -0.323575  7.696230 17.505500
155  2 -0.1396 20.196900 16.297300  3.508490
156  2 -0.1055 -0.368996 16.474000 17.265200
157  2 -0.0799  7.942170  7.794480  3.771040
158  2 -0.0921 11.850100  7.791880 17.399200
159  2 -0.1176  7.935840 16.327500  3.510980
160  2 -0.1108 11.768200 16.202400 17.340100
161  2 -0.8039  7.711810  1.306980 10.192700
162  2 -0.8100  5.901780  1.277620 23.976900
163  2 -0.8258  7.675680  9.872130 10.282200
164  2 -0.8273  5.944670  9.896730 23.859400
165  2 -0.8400 19.914800  1.220920 10.199100
166  2 -0.8207 18.354300 18.357200 24.020100
167  2 -0.8267 20.027400  9.775910 10.324900
168  2 -0.8003 18.200100  9.868710 23.961200
169  2 -0.8368  1.502500 18.422800  9.988830
170  2 -0.8244 -0.177430 18.350500 24.250600
171  2 -0.8307  1.561140  9.845280 10.146600
172  2 -0.8211 -0.194386  9.895440 24.190700
173  2 -0.8260 13.777300 18.456200  9.998630
174  2 -0.8015 12.133800  1.393140 24.106900
175  2 -0.8282 13.747400  9.899490 10.063700
176  2 -0.8061 12.105000  9.840580 24.050000
177  2 -0.1013  5.682670  3.589440  3.191320
178  2 -0.1151  1.537200  3.354500 17.068800
179  2 -0.1106  5.522030 11.969400  3.176150
180  2 -0.1029  1.848240 11.998700 16.849600
181  2 -0.1227 18.323900  3.433050  3.193260
182  2 -0.0998 14.020100  3.567630 16.949000
183  2 -0.1374 18.211900 11.995000  3.371750
184  2 -0.0988 14.155600 12.077000 16.966400
185  2 -0.1056  5.893100  7.607500  3.185370
186  2 -0.1175  1.908750  7.547450 17.015200
187  2 -0.1008  5.643670 16.330200  3.144120
188  2 -0.1110  1.513980 16.359400 16.839500
189  2 -0.1031 17.956600  7.719590  3.049030
190  2 -0.1150 13.837200  7.868580 16.976300
191  2 -0.1204 17.886200 16.307000  3.318300
192  2 -0.1063 14.054100 16.300000 16.835100
193  2 -0.4259  1.708470  5.593830  6.067860
194  2 -0.4424 -0.159774  5.508030 20.171800
195  2 -0.4290  1.853510 14.140100  5.977970
196  2 -0.4160 -0.083032 14.167000 20.068000
197  2 -0.4230 14.206300  5.638820  5.943340
198  2 -0.4292 12.207100  5.662170 20.140100
199  2 -0.3959 14.242700 14.142900  5.858160
200  2 -0.4284 12.267200 14.115100 20.089800
201  2 -0.4392  7.280490  5.674120  6.392000
202  2 -0.4153  5.461410  5.556830 19.799600
203  2 -0.4478  7.440680 14.156800  6.194550
204  2 -0.4309  5.590220 14.016300 19.876000
205  2 -0.3916 19.784200  5.569320  6.231750
206  2 -0.4402 17.835000  5.551240 19.926500
207  2 -0.4311 19.906600 14.150700  6.351390
208  2 -0.4065 17.856000 14.217200 19.831100
209  2 -0.9108 -1.538640  7.645390 12.112500
210  2 -0.8941 21.241300  7.838320 26.110400
211  2 -0.8952 -1.549140 16.242900 12.075500
212  2 -0.9176 21.303800 16.215000 26.105600
213  2 -0.9357 10.783500  7.851230 12.120400
214  2 -0.9227  9.021510  7.643210 25.931100
215  2 -0.9064 10.736400 16.295600 12.013400
216  2 -0.9268  9.024390 16.320600 26.010900
217  2 -0.9001 -1.634010  3.413640 12.093700
218  2 -0.9046 21.181600  3.507100 26.068800
219  2 -0.8903 -1.522480 12.085300 12.123000
220  2 -0.9120 21.377900 11.991200 26.034000
221  2 -0.9084 10.847600  3.385550 12.052100
222  2 -0.9362  9.074800  3.470770 25.929800
223  2 -0.8886 10.649400 11.978700 12.006600
224  2 -0.9138  9.010540 11.979400 25.899500
225  2 -0.4354 -0.571030  1.307050  0.870630
226  2 -0.4188  1.417860  1.435760 14.067600
227  2 -0.4188 -0.578023  9.941380  0.924214
228  2 -0.4217  1.370220  9.864920 14.121800
229  2 -0.4063 11.885900  1.294850  0.978988
230  2 -0.4091 13.714900  1.310600 14.097900
231  2 -0.4498 11.696900  9.893940  0.624056
232  2 -0.4212 13.576300  9.991280 14.154500
233  2 -0.4161  6.195440  1.390230  0.533907
234  2 -0.4420  8.067770  1.328140 14.264800
235  2 -0.4203  6.008890  9.777570  0.494443
236  2 -0.4188  7.985760  9.870750 14.341600
237  2 -0.4002 18.402600  1.346250  0.647168
238  2 -0.4270 20.341800 18.382500 14.431600
239  2 -0.4203 18.315200  9.968850  0.563445
240  2 -0.4406 20.509400  9.760370 14.359900
241  2 -0.9021  4.431290  7.798910  8.173240
242  2 -0.8976  2.808650  7.791000 22.087500
243  2 -0.9211  4.538140 16.264400  8.177470
244  2 -0.8978  2.817060 16.273100 22.118600
245  2 -0.8936 17.030000  7.752610  8.235920
246  2 -0.9284 15.108300  7.730770 22.192900
247  2 -0.9000 16.924100 16.246400  8.131110
248  2 -0.9169 15.228200 16.264300 22.186600
249  2 -0.9132  4.503960  3.459790  8.102980
250  2 -0.8928  2.906590  3.435360 22.234100
251  2 -0.9337  4.596550 12.043800  8.169680
252  2 -0.8989  2.816710 11.994400 22.153100
253  2 -0.8926 16.998500  3.450750  8.181990
254  2 -0.9000 15.186300  3.413610 22.200100
255  2 -0.9043 17.024400 11.945600  8.288750
256  2 -0.9131 15.139200 12.004100 22.140400
257  2 -0.4250  6.164920  5.662640  0.403532
258  2 -0.4260  8.089460  5.699550 14.391200
259  2 -0.4191  6.088650 14.081500  0.527194
260  2 -0.4512  7.943680 14.124800 14.146900
261  2 -0.4418 18.293100  5.559790  0.488324
262  2 -0.3808 20.246200  5.558500 14.502600
263  2 -0.4229 18.317200 14.082800  0.549144
264  2 -0.4380 20.528400 14.153000 14.329200
265  2 -0.4110 -0.626448  5.482560  0.902821
266  2 -0.4077  1.302210  5.416090 14.164300
267  2 -0.4008 -0.514288 14.249300  0.979384
268  2 -0.4041  1.479870 14.216800 14.158600
269  2 -0.4589 11.819000  5.645030  0.716301
270  2 -0.4250 13.591800  5.738330 14.028900
271  2 -0.3971 11.718800 14.210700  1.002100
272  2 -0.4382 13.555800 14.012500 14.083900
273  2 -0.4798 -1.830010  3.432890  8.243450
274  2 -0.4430 21.247500  3.492910 22.066000
275  2 -0.4653 -1.583710 11.943200  8.173540
276  2 -0.4573 21.454700 12.004500 22.109700
277  2 -0.4446 10.586900  3.529740  8.139880
278  2 -0.4447  9.179840  3.441220 22.036500
279  2 -0.4261 10.519900 11.902600  8.038110
280  2 -0.4318  9.118770 12.020100 21.966400
281  2 -0.4651 -1.686960  7.751130  8.188070
282  2 -0.4631 21.542900  7.783690 22.145200
283  2 -0.4587 -1.755420 16.219300  8.210140
284  2 -0.4735 21.496600 16.220700 22.136700
285  2 -0.4375 10.554600  7.660890  8.130660
286  2 -0.4524  9.107330  7.723890 21.959300
287  2 -0.4422 10.756200 16.388500  8.004150
288  2 -0.4533  9.209270 16.414500 22.106300
289  2 -0.4399  7.354300 18.479800  6.252210
290  2 -0.4453  5.583310 18.570300 20.018600
291  2 -0.4349  7.358210  9.872540  6.236170
292  2 -0.4192  5.445200  9.840850 19.834400
293  2 -0.3926 19.816300  1.336410  6.239240
294  2 -0.4278 17.883600  1.320120 19.920500
295  2 -0.4102 19.875600  9.826240  6.239770
296  2 -0.4562 17.833800 10.070000 19.955800
297  2 -0.4113  1.753280 18.418200  6.031880
298  2 -0.4367  0.032137 18.426200 20.064200
299  2 -0.4029  1.827330  9.958390  5.894230
300  2 -0.4037 -0.204287  9.754650 20.148600
301  2 -0.4022 14.230400  1.293490  5.856570
302  2 -0.4197 12.258200  1.336370 20.160400
303  2 -0.4600 14.244800  9.996580  6.032510
304  2 -0.4325 12.225100  9.920030 20.162200
305  2 -0.4333  4.553990  3.285030 12.195500
306  2 -0.4257  3.081320  3.377580 26.091700
307  2 -0.4643  4.452330 12.057100 12.176600
308  2 -0.4395  3.060170 12.086900 26.129900
309  2 -0.4623 16.676300  3.398870 12.118200
310  2 -0.4526 15.287400  3.487930 26.127400
311  2 -0.4369 16.840800 12.101000 12.176700
312  2 -0.4380 15.176800 11.966400 26.133800
313  2 -0.4364  4.461540  7.845220 12.235800
314  2 -0.4625  2.940980  7.746760 25.985800
315  2 -0.4604  4.503520 16.299700 12.155700
316  2 -0.4371  3.034310 16.206800 26.112800
317  2 -0.4417 16.991000  7.702120 12.220700
318  2 -0.4414 15.271200  7.752320 26.087200
319  2 -0.4768 16.805300 16.379800 12.079000
320  2 -0.4362 15.255700 16.285000 26.162100

