Generated by pymatgen.io.lammps.data.LammpsData

504  atoms

  2  atom types

0.000000 17.752278  xlo xhi
0.000000 21.831005  ylo yhi
0.000000 41.650458  zlo zhi

Masses

1  208.9804
2   78.9600

Atoms

1    1  0.8526 -0.296651 14.855300 12.283000
2    1  0.8426  1.907410 18.259200 12.343200
3    1  0.8527 -0.296717  7.578560 12.282900
4    1  0.8428  1.907940 10.982500 12.343400
5    1  0.8546  4.138560 14.852600 12.292000
6    1  0.8431  6.341580 18.254500 12.343500
7    1  0.8525 -0.296661  0.301655 12.283200
8    1  0.8428  1.907990  3.705230 12.343700
9    1  0.8546  4.138250  7.575520 12.291700
10   1  0.8431  6.341340 10.977700 12.343400
11   1  0.8527  8.579440 14.855600 12.282800
12   1  0.8427 10.784100 18.259400 12.343400
13   1  0.8546  4.138130  0.298270 12.292100
14   1  0.8431  6.341370  3.700320 12.343800
15   1  0.8525  8.579440  7.578730 12.282700
16   1  0.8427 10.784000 10.982400 12.343400
17   1  0.8546 13.014300 14.852600 12.291700
18   1  0.8430 15.217700 18.254300 12.343400
19   1  0.8525  8.579360  0.301497 12.283100
20   1  0.8427 10.784000  3.705440 12.343600
21   1  0.8546 13.014600  7.575650 12.292000
22   1  0.8431 15.217500 10.977400 12.343300
23   1  0.8546 13.014700  0.298233 12.292300
24   1  0.8431 15.217700  3.700660 12.344000
25   1  0.8574  1.914950 13.514600  1.615890
26   1  0.8430  4.141900 17.374200  1.550330
27   1  0.8574  1.914760  6.237640  1.616110
28   1  0.8430  4.142120 10.097200  1.549620
29   1  0.8586  6.338120 13.513200  1.611520
30   1  0.8460  8.569750 17.365400  1.543350
31   1  0.8574  1.914920 20.791800  1.615700
32   1  0.8430  4.142040  2.819900  1.549970
33   1  0.8585  6.338110  6.236060  1.611550
34   1  0.8460  8.569760 10.088000  1.542630
35   1  0.8574 10.791200 13.514700  1.615920
36   1  0.8430 13.018200 17.374300  1.550230
37   1  0.8586  6.338080 20.790200  1.611700
38   1  0.8460  8.569950  2.810890  1.542700
39   1  0.8573 10.791200  6.237590  1.615990
40   1  0.8430 13.018200 10.097200  1.549650
41   1  0.8586 15.214200 13.513200  1.611510
42   1  0.8460 -0.306542 17.365200  1.542860
43   1  0.8574 10.791200 20.791600  1.615760
44   1  0.8430 13.017900  2.819970  1.550090
45   1  0.8586 15.214300  6.235870  1.611600
46   1  0.8460 -0.306579 10.087800  1.542770
47   1  0.8586 15.214300 20.790300  1.611510
48   1  0.8460 -0.306365  2.810700  1.542940
49   1  0.1805 17.444300 15.335100  6.978190
50   1  0.2042  1.914640 17.197100  6.053060
51   1  0.1805 17.444500  8.058120  6.978020
52   1  0.2043  1.914560  9.920470  6.052730
53   1  0.1821  4.134710 15.329200  6.989110
54   1  0.2078  6.356490 17.203100  6.022210
55   1  0.1805 17.444400  0.780899  6.978410
56   1  0.2042  1.914680  2.643100  6.053200
57   1  0.1821  4.134490  8.052340  6.988690
58   1  0.2079  6.356540  9.926260  6.022180
59   1  0.1805  8.568270 15.335100  6.978050
60   1  0.2043 10.790900 17.197200  6.052800
61   1  0.1821  4.134690  0.774787  6.989230
62   1  0.2078  6.356540  2.648960  6.022500
63   1  0.1805  8.568390  8.058240  6.977890
64   1  0.2043 10.790800  9.920490  6.052610
65   1  0.1821 13.010900 15.329100  6.989070
66   1  0.2078 15.232600 17.203000  6.022220
67   1  0.1805  8.568320  0.780961  6.978370
68   1  0.2043 10.790700  2.643110  6.052880
69   1  0.1821 13.010800  8.052330  6.988700
70   1  0.2078 15.232800  9.926360  6.022100
71   1  0.1821 13.010800  0.774947  6.989350
72   1  0.2079 15.232700  2.649110  6.022380
73   1  0.1815  1.912150 12.948200  6.864710
74   1  0.2049  4.141180 18.349400  7.824080
75   1  0.1815  1.912050  5.670940  6.864930
76   1  0.2049  4.141230 11.072600  7.823980
77   1  0.1805  6.353290 12.954900  6.870020
78   1  0.2053  8.560250 18.349000  7.840440
79   1  0.1815  1.912080 20.224900  6.864820
80   1  0.2049  4.141310  3.795540  7.824050
81   1  0.1805  6.353030  5.677840  6.869720
82   1  0.2054  8.560230 11.072300  7.840430
83   1  0.1815 10.788100 12.948000  6.864900
84   1  0.2049 13.017500 18.349300  7.824050
85   1  0.1805  6.353240 20.231500  6.869750
86   1  0.2053  8.560210  3.795540  7.840550
87   1  0.1815 10.788400  5.670980  6.864800
88   1  0.2049 13.017500 11.072600  7.823990
89   1  0.1805 15.229300 12.955000  6.869720
90   1  0.2053 -0.316071 18.349100  7.840260
91   1  0.1815 10.788300 20.225000  6.864820
92   1  0.2049 13.017400  3.795710  7.823980
93   1  0.1805 15.229500  5.677790  6.869800
94   1  0.2054 -0.315952 11.072300  7.840590
95   1  0.1805 15.229300 20.231600  6.869520
96   1  0.2054 -0.316018  3.795160  7.840640
97   1  0.8459  1.902600 13.424300 26.236900
98   1  0.8533  4.137890 17.285600 26.174100
99   1  0.8459  1.902620  6.147410 26.236300
100  1  0.8533  4.137930 10.008800 26.174000
101  1  0.8458  6.345720 13.417500 26.234000
102  1  0.8524  8.580000 17.295700 26.165300
103  1  0.8459  1.902670 20.701200 26.236800
104  1  0.8533  4.138030  2.731750 26.173900
105  1  0.8457  6.345560  6.140880 26.233800
106  1  0.8524  8.579910 10.018700 26.165600
107  1  0.8459 10.778700 13.424100 26.236500
108  1  0.8533 13.014000 17.285700 26.174300
109  1  0.8457  6.345780 20.694100 26.234300
110  1  0.8525  8.579930  2.741710 26.165300
111  1  0.8459 10.779000  6.147560 26.237000
112  1  0.8533 13.014100 10.008900 26.173900
113  1  0.8458 15.221900 13.417600 26.234100
114  1  0.8524 -0.296123 17.295400 26.165200
115  1  0.8459 10.778600 20.701000 26.237000
116  1  0.8533 13.013900  2.731830 26.173800
117  1  0.8457 15.221800  6.140770 26.233700
118  1  0.8524 -0.296151 10.018700 26.165500
119  1  0.8457 15.221800 20.694200 26.234400
120  1  0.8524 -0.296217  2.741700 26.165500
121  1  0.8618  1.918450 15.950700 15.488700
122  1  0.8410  4.141790 19.810500 15.437500
123  1  0.8617  1.918530  8.673420 15.488700
124  1  0.8411  4.141600 12.533200 15.437100
125  1  0.8618  6.333870 15.949800 15.491000
126  1  0.8446  8.570820 19.801900 15.432200
127  1  0.8617  1.918330  1.396380 15.489300
128  1  0.8410  4.141460  5.256900 15.437100
129  1  0.8617  6.333650  8.672810 15.491000
130  1  0.8447  8.571020 12.524700 15.432200
131  1  0.8618 10.794400 15.950700 15.488600
132  1  0.8410 13.017500 19.810500 15.437700
133  1  0.8617  6.333700  1.395390 15.491400
134  1  0.8446  8.571210  5.248180 15.432400
135  1  0.8617 10.794300  8.673620 15.488600
136  1  0.8411 13.017800 12.533500 15.437200
137  1  0.8618 15.209900 15.949600 15.491100
138  1  0.8446 -0.305112 19.801800 15.432500
139  1  0.8616 10.794500  1.396100 15.488900
140  1  0.8410 13.017700  5.256730 15.437100
141  1  0.8617 15.209800  8.672980 15.490700
142  1  0.8446 -0.305070 12.524900 15.432200
143  1  0.8617 15.209900  1.395550 15.491400
144  1  0.8445 -0.305049  5.248500 15.432400
145  1  0.2055  1.914920 12.329400 19.920500
146  1  0.1817  4.134250 17.737900 20.873200
147  1  0.2055  1.914880  5.052670 19.920700
148  1  0.1817  4.134320 10.461100 20.873200
149  1  0.2088  6.356200 12.338900 19.889400
150  1  0.1798  8.569720 17.751000 20.867400
151  1  0.2055  1.914970 19.606400 19.920800
152  1  0.1817  4.134080  3.184110 20.873500
153  1  0.2088  6.356360  5.061950 19.889600
154  1  0.1798  8.569570 10.474500 20.867300
155  1  0.2055 10.791200 12.329400 19.920700
156  1  0.1817 13.010400 17.737900 20.873100
157  1  0.2087  6.356390 19.616000 19.889800
158  1  0.1798  8.569760  3.197280 20.867600
159  1  0.2054 10.791100  5.052490 19.920900
160  1  0.1817 13.010400 10.461200 20.873400
161  1  0.2088 15.232500 12.338800 19.889200
162  1  0.1798 17.445800 17.751100 20.867500
163  1  0.2055 10.791000 19.606500 19.920800
164  1  0.1817 13.010400  3.183960 20.873400
165  1  0.2087 15.232300  5.061980 19.889900
166  1  0.1798 17.445800 10.474400 20.867300
167  1  0.2088 15.232500 19.616100 19.889700
168  1  0.1798 17.445900  3.197500 20.867600
169  1  0.1807  1.912790 15.366800 20.747300
170  1  0.2024  4.139850 20.755100 21.689100
171  1  0.1807  1.912630  8.089970 20.747500
172  1  0.2024  4.139910 13.478200 21.689200
173  1  0.1795  6.352930 15.372100 20.752600
174  1  0.2027  8.561000 20.761500 21.707000
175  1  0.1807  1.912640  0.812874 20.747600
176  1  0.2023  4.139850  6.201330 21.689100
177  1  0.1795  6.353060  8.094960 20.752700
178  1  0.2026  8.560780 13.484800 21.706600
179  1  0.1807 10.788900 15.366500 20.747200
180  1  0.2023 13.016000 20.755100 21.689000
181  1  0.1795  6.353060  0.817930 20.752300
182  1  0.2027  8.560870  6.207710 21.706900
183  1  0.1807 10.788800  8.089860 20.747400
184  1  0.2023 13.016200 13.478200 21.689100
185  1  0.1795 15.229200 15.372000 20.752200
186  1  0.2027 -0.315136 20.761600 21.706800
187  1  0.1807 10.788800  0.812925 20.747700
188  1  0.2024 13.016100  6.201210 21.689400
189  1  0.1795 15.229000  8.095010 20.752600
190  1  0.2027 -0.315215 13.484700 21.706700
191  1  0.1795 15.229100  0.817956 20.752600
192  1  0.2027 -0.315294  6.207960 21.707000
193  1  0.8433  1.906750 15.831900 40.106300
194  1  0.8563  4.138370 19.696600 40.059700
195  1  0.8433  1.906550  8.554480 40.105900
196  1  0.8563  4.138280 12.419500 40.059300
197  1  0.8439  6.343540 15.827500 40.107200
198  1  0.8557  8.578550 19.696800 40.057100
199  1  0.8433  1.906730  1.277700 40.106100
200  1  0.8564  4.138510  5.142580 40.059700
201  1  0.8438  6.343880  8.550320 40.106800
202  1  0.8558  8.578730 12.420000 40.056700
203  1  0.8433 10.782900 15.831900 40.106100
204  1  0.8564 13.014300 19.696800 40.059300
205  1  0.8439  6.343550  1.273260 40.106700
206  1  0.8558  8.578370  5.143190 40.057100
207  1  0.8433 10.782800  8.554470 40.105800
208  1  0.8564 13.014400 12.419500 40.059200
209  1  0.8439 15.219600 15.827500 40.107000
210  1  0.8557 -0.297464 19.697300 40.057100
211  1  0.8434 10.782900  1.277930 40.106100
212  1  0.8564 13.014300  5.142420 40.059600
213  1  0.8439 15.219900  8.550040 40.106600
214  1  0.8557 -0.297553 12.420200 40.056900
215  1  0.8439 15.219800  1.273470 40.106800
216  1  0.8558 -0.297594  5.142840 40.056800
217  1  0.8461 -0.302674 14.951200 29.316400
218  1  0.8609  1.917780 18.376300 29.383800
219  1  0.8461 -0.302650  7.674330 29.316700
220  1  0.8610  1.917820 11.099400 29.383300
221  1  0.8420  4.139510 14.964300 29.326600
222  1  0.8610  6.334310 18.377100 29.381900
223  1  0.8461 -0.302878  0.397417 29.316600
224  1  0.8610  1.917730  3.822360 29.383600
225  1  0.8419  4.139280  7.687350 29.326800
226  1  0.8611  6.334410 11.100000 29.381200
227  1  0.8462  8.573280 14.951200 29.316300
228  1  0.8610 10.793800 18.376400 29.384300
229  1  0.8420  4.139460  0.410512 29.326800
230  1  0.8611  6.334130  3.823300 29.381000
231  1  0.8462  8.573480  7.674210 29.316500
232  1  0.8610 10.794000 11.099200 29.383500
233  1  0.8420 13.015500 14.964100 29.326400
234  1  0.8611 15.210500 18.377000 29.381800
235  1  0.8461  8.573390  0.397580 29.316500
236  1  0.8611 10.794000  3.822490 29.383500
237  1  0.8420 13.015600  7.687380 29.327100
238  1  0.8611 15.210200 11.100100 29.381300
239  1  0.8419 13.015600  0.410604 29.326600
240  1  0.8612 15.210600  3.823290 29.381100
241  1  0.2048  1.914280 14.765900 33.810700
242  1  0.1819  4.135820 20.176400 34.767900
243  1  0.2048  1.914310  7.488890 33.810300
244  1  0.1820  4.135900 12.899000 34.767600
245  1  0.2080  6.358280 14.775200 33.781200
246  1  0.1804  8.569440 20.180200 34.758500
247  1  0.2048  1.914250  0.212136 33.810500
248  1  0.1819  4.136010  5.622230 34.767800
249  1  0.2080  6.358310  7.498200 33.781200
250  1  0.1804  8.569230 12.902900 34.758000
251  1  0.2049 10.790400 14.765900 33.810500
252  1  0.1819 13.012000 20.176100 34.768000
253  1  0.2080  6.358280  0.221195 33.781300
254  1  0.1804  8.569260  5.625810 34.758200
255  1  0.2048 10.790300  7.489210 33.810200
256  1  0.1820 13.012200 12.899000 34.767700
257  1  0.2080 15.234400 14.775200 33.781200
258  1  0.1804 17.445500 20.180100 34.758300
259  1  0.2048 10.790500  0.212062 33.810600
260  1  0.1819 13.012000  5.622360 34.767700
261  1  0.2080 15.234600  7.498300 33.781200
262  1  0.1804 17.445400 12.902900 34.758300
263  1  0.2080 15.234400  0.221115 33.781200
264  1  0.1804 17.445500  5.625840 34.758400
265  1  0.2029 -0.314538 15.918600 35.600100
266  1  0.1813  1.911930 17.797600 34.629200
267  1  0.2028 -0.314432  8.641330 35.600000
268  1  0.1813  1.911990 10.520400 34.628900
269  1  0.2026  4.141330 15.917900 35.585000
270  1  0.1802  6.355080 17.806100 34.630500
271  1  0.2029 -0.314736  1.364590 35.600100
272  1  0.1813  1.911880  3.243380 34.628900
273  1  0.2026  4.141390  8.640670 35.585000
274  1  0.1802  6.355170 10.528800 34.630300
275  1  0.2028  8.561420 15.918500 35.599900
276  1  0.1813 10.788100 17.797400 34.629200
277  1  0.2026  4.141300  1.363860 35.585200
278  1  0.1802  6.354990  3.251950 34.630700
279  1  0.2029  8.561470  8.641290 35.600200
280  1  0.1813 10.788000 10.520500 34.629000
281  1  0.2026 13.017600 15.917800 35.585100
282  1  0.1802 15.231400 17.806000 34.630900
283  1  0.2029  8.561680  1.364880 35.600000
284  1  0.1813 10.788400  3.243500 34.629000
285  1  0.2026 13.017300  8.640690 35.584900
286  1  0.1802 15.231300 10.528700 34.630500
287  1  0.2026 13.017400  1.363550 35.585400
288  1  0.1802 15.231000  3.251830 34.630300
289  2 -0.7749 -0.304487 14.815500 41.754800
290  2 -0.7752  1.912770 18.387700 -0.082766
291  2 -0.7749 -0.304593  7.538250 41.754700
292  2 -0.7751  1.912760 11.110600 -0.083025
293  2 -0.7781  4.136990 14.812700 41.735700
294  2 -0.7776  6.352060 18.402300 -0.072634
295  2 -0.7750 -0.304398 22.092800 41.754700
296  2 -0.7751  1.912970  3.833750 -0.082745
297  2 -0.7781  4.136890  7.535620 41.735400
298  2 -0.7776  6.352090 11.125300 -0.073372
299  2 -0.7747  8.571870 14.815200 41.755200
300  2 -0.7752 10.789100 18.387700 -0.082585
301  2 -0.7782  4.137120 22.089700 41.735400
302  2 -0.7776  6.351970  3.848330 -0.072954
303  2 -0.7749  8.571950  7.538270 41.754900
304  2 -0.7751 10.789100 11.110800 -0.083259
305  2 -0.7781 13.013100 14.813000 41.735400
306  2 -0.7775 15.228100 18.402700 -0.073049
307  2 -0.7749  8.571860 22.092600 41.754400
308  2 -0.7752 10.788900  3.833790 -0.082955
309  2 -0.7780 13.013200  7.535790 41.735500
310  2 -0.7775 15.228000 11.125400 -0.073317
311  2 -0.7781 13.013100 22.089700 41.735400
312  2 -0.7775 15.228100  3.848130 -0.072981
313  2 -0.6316  1.921490 15.965700  2.884680
314  2 -0.6828  4.137250 19.770000  3.135620
315  2 -0.6316  1.921660  8.689330  2.884800
316  2 -0.6828  4.137570 12.492800  3.135300
317  2 -0.6338  6.355920 15.966800  2.892040
318  2 -0.6790  8.573050 19.760600  3.122930
319  2 -0.6316  1.921860  1.411660  2.884630
320  2 -0.6828  4.137280  5.215750  3.135500
321  2 -0.6337  6.355940  8.689830  2.891770
322  2 -0.6789  8.572920 12.483100  3.122300
323  2 -0.6316 10.797900 15.965700  2.884830
324  2 -0.6828 13.013600 19.770100  3.135410
325  2 -0.6337  6.356110  1.412330  2.891890
326  2 -0.6790  8.573020  5.206090  3.122630
327  2 -0.6316 10.797900  8.689200  2.884620
328  2 -0.6829 13.013600 12.492900  3.135120
329  2 -0.6338 15.232200 15.966300  2.891970
330  2 -0.6790 17.449200 19.760500  3.122430
331  2 -0.6316 10.797800  1.411590  2.884600
332  2 -0.6829 13.013700  5.215640  3.135610
333  2 -0.6337 15.232000  8.689400  2.891850
334  2 -0.6789 17.449000 12.483100  3.122680
335  2 -0.6337 15.231800  1.412250  2.892120
336  2 -0.6790 17.449100  5.206190  3.122730
337  2 -0.6798  1.909620 15.879700 10.757100
338  2 -0.6270  4.127870 19.665100 10.989000
339  2 -0.6799  1.909600  8.603430 10.757500
340  2 -0.6270  4.127880 12.388600 10.989200
341  2 -0.6806  6.344730 15.902300 10.760400
342  2 -0.6285  8.561270 19.661700 10.997200
343  2 -0.6799  1.909720  1.326420 10.757800
344  2 -0.6270  4.127930  5.110480 10.989300
345  2 -0.6806  6.344310  8.625630 10.759900
346  2 -0.6284  8.561280 12.385300 10.996700
347  2 -0.6798 10.785600 15.880200 10.757200
348  2 -0.6270 13.004200 19.664800 10.988900
349  2 -0.6806  6.344400  1.348530 10.760500
350  2 -0.6284  8.560860  5.108020 10.997200
351  2 -0.6798 10.786100  8.603270 10.757100
352  2 -0.6270 13.003800 12.388500 10.989100
353  2 -0.6806 15.220700 15.901900 10.759900
354  2 -0.6285 -0.315315 19.662000 10.996900
355  2 -0.6798 10.785900  1.326330 10.757700
356  2 -0.6269 13.004000  5.111080 10.989300
357  2 -0.6806 15.220700  8.625360 10.760200
358  2 -0.6284 -0.314880 12.385100 10.997200
359  2 -0.6805 15.220700  1.348850 10.760400
360  2 -0.6284 -0.314741  5.108120 10.997200
361  2 -0.7761  1.916360 13.546800 13.808900
362  2 -0.7789  4.136150 17.240800 13.969400
363  2 -0.7762  1.916200  6.270370 13.809000
364  2 -0.7790  4.135930  9.963820 13.968900
365  2 -0.7780  6.349940 13.566700 13.817600
366  2 -0.7732  8.574990 17.249300 13.993800
367  2 -0.7761  1.916010 20.823600 13.809600
368  2 -0.7789  4.135790  2.686680 13.969800
369  2 -0.7779  6.349890  6.290030 13.817300
370  2 -0.7733  8.575210  9.972980 13.993300
371  2 -0.7761 10.792200 13.547100 13.809200
372  2 -0.7789 13.012000 17.241000 13.969700
373  2 -0.7781  6.349820 20.843800 13.817600
374  2 -0.7732  8.575170  2.695700 13.993800
375  2 -0.7762 10.792200  6.269980 13.809400
376  2 -0.7790 13.011900  9.963730 13.969000
377  2 -0.7779 15.225800 13.566400 13.817400
378  2 -0.7733 -0.300817 17.249200 13.994100
379  2 -0.7762 10.792300 20.823600 13.809300
380  2 -0.7789 13.012300  2.686790 13.969300
381  2 -0.7780 15.225900  6.290500 13.817000
382  2 -0.7732 -0.300738  9.972800 13.993400
383  2 -0.7780 15.226000 20.843600 13.817900
384  2 -0.7732 -0.300883  2.695690 13.993700
385  2 -0.6779 17.451500 14.933200 16.992600
386  2 -0.6315  1.924910 18.387700 16.768500
387  2 -0.6779 17.451500  7.657010 16.992600
388  2 -0.6314  1.924950 11.110900 16.768600
389  2 -0.6822  4.133130 14.948200 17.014400
390  2 -0.6349  6.354720 18.391100 16.775400
391  2 -0.6780 17.451300  0.379707 16.993000
392  2 -0.6314  1.924980  3.834410 16.768600
393  2 -0.6822  4.133050  7.671510 17.014800
394  2 -0.6349  6.354640 11.114500 16.775300
395  2 -0.6779  8.575420 14.933300 16.992300
396  2 -0.6315 10.800700 18.388000 16.768400
397  2 -0.6823  4.133080  0.394372 17.015200
398  2 -0.6348  6.354560  3.837730 16.775400
399  2 -0.6779  8.575250  7.656960 16.992700
400  2 -0.6314 10.801200 11.111000 16.768500
401  2 -0.6823 13.009100 14.948500 17.013800
402  2 -0.6349 15.230900 18.391400 16.775600
403  2 -0.6780  8.575330  0.379432 16.993000
404  2 -0.6314 10.801200  3.833870 16.768400
405  2 -0.6822 13.009100  7.671610 17.014800
406  2 -0.6349 15.230700 11.114800 16.775400
407  2 -0.6823 13.009100  0.394367 17.014900
408  2 -0.6348 15.230700  3.837650 16.775300
409  2 -0.6282 -0.315620 14.814900 24.890800
410  2 -0.6797  1.907770 18.338800 24.650600
411  2 -0.6282 -0.315746  7.538380 24.890100
412  2 -0.6797  1.907800 11.061800 24.650700
413  2 -0.6260  4.127270 14.815700 24.877400
414  2 -0.6800  6.348220 18.352600 24.651800
415  2 -0.6281 -0.315798  0.260878 24.890600
416  2 -0.6798  1.907750  3.784740 24.650500
417  2 -0.6261  4.127340  7.539110 24.876900
418  2 -0.6801  6.348430 11.076100 24.652000
419  2 -0.6281  8.560520 14.815400 24.890600
420  2 -0.6798 10.784100 18.338500 24.651100
421  2 -0.6260  4.127480  0.261312 24.877400
422  2 -0.6801  6.348350  3.798900 24.652100
423  2 -0.6281  8.560790  7.538190 24.890700
424  2 -0.6798 10.783800 11.061800 24.650800
425  2 -0.6260 13.003400 14.815900 24.877200
426  2 -0.6800 15.224500 18.352900 24.651800
427  2 -0.6281  8.560550  0.261140 24.890800
428  2 -0.6798 10.784000  3.785010 24.650600
429  2 -0.6260 13.003300  7.538970 24.877100
430  2 -0.6800 15.224500 11.076400 24.651900
431  2 -0.6260 13.003200  0.261365 24.877600
432  2 -0.6801 15.224400  3.798800 24.652200
433  2 -0.7775  1.915570 15.983300 27.697500
434  2 -0.7763  4.136020 19.677500 27.860600
435  2 -0.7775  1.915490  8.706310 27.697500
436  2 -0.7764  4.135900 12.400600 27.860500
437  2 -0.7782  6.350180 16.002700 27.703300
438  2 -0.7740  8.575030 19.684300 27.879000
439  2 -0.7774  1.915470  1.429560 27.697200
440  2 -0.7763  4.135750  5.123670 27.860600
441  2 -0.7782  6.350100  8.725730 27.703200
442  2 -0.7740  8.574890 12.406900 27.878800
443  2 -0.7774 10.791400 15.983400 27.697700
444  2 -0.7763 13.011800 19.677300 27.861000
445  2 -0.7781  6.350160  1.448950 27.703000
446  2 -0.7739  8.575050  5.130220 27.879000
447  2 -0.7775 10.791900  8.706440 27.697600
448  2 -0.7764 13.012000 12.400400 27.860700
449  2 -0.7782 15.226600 16.002800 27.703300
450  2 -0.7740 -0.301110 19.684400 27.879000
451  2 -0.7774 10.791600  1.429960 27.697300
452  2 -0.7763 13.012100  5.123790 27.860700
453  2 -0.7781 15.226200  8.725800 27.703100
454  2 -0.7740 -0.301158 12.406800 27.878900
455  2 -0.7781 15.226200  1.448930 27.703300
456  2 -0.7739 -0.301229  5.129910 27.878800
457  2 -0.6321  1.923100 13.550400 30.656700
458  2 -0.6832  4.132650 17.374200 30.900000
459  2 -0.6322  1.922890  6.273000 30.656600
460  2 -0.6831  4.132720 10.097500 30.900000
461  2 -0.6344  6.355380 13.549700 30.666600
462  2 -0.6789  8.575160 17.349300 30.880500
463  2 -0.6322  1.923110 20.827800 30.656800
464  2 -0.6831  4.132780  2.820370 30.899600
465  2 -0.6345  6.355520  6.273040 30.666800
466  2 -0.6788  8.575280 10.072700 30.880500
467  2 -0.6321 10.799200 13.550100 30.656600
468  2 -0.6832 13.008800 17.373900 30.900000
469  2 -0.6345  6.355310 20.827500 30.667000
470  2 -0.6787  8.575210  2.795830 30.880700
471  2 -0.6322 10.798900  6.273490 30.656400
472  2 -0.6831 13.008800 10.097500 30.899900
473  2 -0.6344 15.231500 13.550000 30.666600
474  2 -0.6788 17.451400 17.349600 30.880600
475  2 -0.6322 10.799200 20.827900 30.656700
476  2 -0.6831 13.008900  2.820620 30.899500
477  2 -0.6345 15.231800  6.273120 30.666800
478  2 -0.6788 17.451200 10.072800 30.880400
479  2 -0.6345 15.231600 20.827200 30.667000
480  2 -0.6788 17.451200  2.795530 30.880500
481  2 -0.6790  1.908920 13.446000 38.536400
482  2 -0.6267  4.128330 17.245200 38.756500
483  2 -0.6790  1.908880  6.168980 38.536600
484  2 -0.6267  4.128220  9.967800 38.756100
485  2 -0.6801  6.345250 13.466100 38.539300
486  2 -0.6283  8.563700 17.244000 38.765400
487  2 -0.6791  1.908780 20.723100 38.536700
488  2 -0.6267  4.128000  2.691500 38.756200
489  2 -0.6801  6.345370  6.188830 38.539000
490  2 -0.6283  8.563900  9.966850 38.765100
491  2 -0.6791 10.785000 13.446000 38.536700
492  2 -0.6268 13.004200 17.245300 38.756300
493  2 -0.6802  6.345390 20.743000 38.539200
494  2 -0.6282  8.563870  2.690580 38.765500
495  2 -0.6790 10.784900  6.168860 38.536700
496  2 -0.6267 13.004200  9.967900 38.756200
497  2 -0.6802 15.221300 13.466100 38.539400
498  2 -0.6282 -0.312322 17.244100 38.765300
499  2 -0.6791 10.784900 20.723400 38.536500
500  2 -0.6268 13.004300  2.691420 38.756200
501  2 -0.6802 15.221300  6.188480 38.539500
502  2 -0.6283 -0.312290  9.967090 38.765300
503  2 -0.6802 15.221400 20.743100 38.539400
504  2 -0.6283 -0.312355  2.690240 38.765300

