Generated by pymatgen.io.lammps.data.LammpsData

80  atoms

 2  atom types

0.000000 13.274166  xlo xhi
0.000000 12.099450  ylo yhi
0.000000 14.084790  zlo zhi

Masses

1  106.42
2   78.96

Atoms

1   1  0.981797  1.561360  0.000000
2   1  0.981797  1.561360  7.042390
3   1  0.981797  7.611090  0.000000
4   1  0.981797  7.611080  7.042390
5   1  7.618880  1.561360  0.000000
6   1  7.618880  1.561360  7.042390
7   1  7.618880  7.611090  0.000000
8   1  7.618880  7.611080  7.042390
9   1  4.300340  1.561360  0.000001
10  1  4.300340  1.561360  7.042400
11  1  4.300340  7.611090  0.000001
12  1  4.300340  7.611090  7.042400
13  1 10.937400  1.561360 14.084800
14  1 10.937400  1.561360  7.042390
15  1 10.937400  7.611080 14.084800
16  1 10.937400  7.611080  7.042390
17  1  0.981797  4.586220  0.000000
18  1  0.981797  4.586220  7.042390
19  1  0.981797 10.635900  0.000000
20  1  0.981797 10.635900  7.042390
21  1  7.618880  4.586220  0.000000
22  1  7.618880  4.586220  7.042390
23  1  7.618880 10.635900  0.000000
24  1  7.618880 10.635900  7.042390
25  1  4.300340  4.586220  0.000001
26  1  4.300340  4.586220  7.042400
27  1  4.300340 10.635900  0.000001
28  1  4.300340 10.635900  7.042400
29  1 10.937400  4.586220 14.084800
30  1 10.937400  4.586230  7.042390
31  1 10.937400 10.635900 14.084800
32  1 10.937400 10.636000  7.042390
33  2  2.641070  3.073790  1.227910
34  2  2.641070  3.073790  8.270310
35  2  2.641070  9.123520  1.227910
36  2  2.641070  9.123520  8.270310
37  2  9.278150  3.073790  1.227910
38  2  9.278150  3.073790  8.270300
39  2  9.278150  9.123520  1.227910
40  2  9.278150  9.123520  8.270300
41  2 12.596700  1.273020  1.722720
42  2 12.596700  1.273020  8.765120
43  2 12.596700  7.322740  1.722720
44  2 12.596700  7.322740  8.765120
45  2  5.959610  1.273020  1.722730
46  2  5.959610  1.273020  8.765120
47  2  5.959610  7.322750  1.722730
48  2  5.959610  7.322750  8.765120
49  2 12.596700  4.874560  1.722720
50  2 12.596700  4.874560  8.765120
51  2 12.596700 10.924300  1.722720
52  2 12.596700 10.924300  8.765120
53  2  5.959610  4.874560  1.722730
54  2  5.959610  4.874560  8.765120
55  2  5.959610 10.924300  1.722730
56  2  5.959610 10.924300  8.765120
57  2  2.641070  1.849700  5.319670
58  2  2.641070  1.849700 12.362100
59  2  2.641070  7.899430  5.319670
60  2  2.641070  7.899430 12.362100
61  2  9.278150  1.849700  5.319670
62  2  9.278150  1.849700 12.362100
63  2  9.278150  7.899420  5.319670
64  2  9.278150  7.899420 12.362100
65  2  2.641070  4.297880  5.319670
66  2  2.641070  4.297880 12.362100
67  2  2.641070 10.347600  5.319670
68  2  2.641070 10.347600 12.362100
69  2  9.278150  4.297880  5.319670
70  2  9.278150  4.297880 12.362100
71  2  9.278150 10.347600  5.319670
72  2  9.278150 10.347600 12.362100
73  2 12.596700  0.048929  5.814480
74  2 12.596700  0.048929 12.856900
75  2 12.596700  6.098650  5.814480
76  2 12.596700  6.098650 12.856900
77  2  5.959610  0.048929  5.814490
78  2  5.959610  0.048929 12.856900
79  2  5.959610  6.098650  5.814490
80  2  5.959610  6.098650 12.856900

