Generated by pymatgen.io.lammps.data.LammpsData

80  atoms

 2  atom types

0.000000 12.125766  xlo xhi
0.000000 12.296661  ylo yhi
0.000000 14.084790  zlo zhi

Masses

1  106.42
2   78.96

Atoms

1   1  5.141390  8.720200  4.657310
2   1  5.977390  0.686274  4.386990
3   1  8.055030  7.129340  8.922480
4   1  1.213290  1.903150 10.655400
5   1  9.186260 10.971900  1.996670
6   1 11.992300  3.432820  6.313650
7   1  2.580570  4.212510 13.246100
8   1  6.718440  6.157050  1.123590
9   1  2.116290  0.646529  0.386760
10  1  1.741570  7.630940  6.519600
11  1  4.065010 10.278100  1.962060
12  1 11.600400  1.428570  7.805010
13  1  0.484482 10.282800 13.072200
14  1  8.481060  2.562660  1.874230
15  1  9.572010 11.953600  6.129760
16  1  3.959430  5.775180 11.543100
17  1  8.064880  8.964130 12.309200
18  1  2.669300  7.912310 13.463000
19  1  0.219051  1.040910  5.408860
20  1  9.031240  7.662450  5.783890
21  1  3.809540  7.794230  9.927720
22  1  7.231030  1.834690 13.639000
23  1  9.604090  7.498780  2.984210
24  1  0.386303  4.198490  2.572440
25  1  1.715080  9.618900  1.397630
26  1  2.901480 11.121700 10.621900
27  1  0.463257  9.347000  4.962140
28  1  5.222440  3.129510  5.252340
29  1  9.375970  4.840290  8.300520
30  1  2.534600  4.110460  4.498820
31  1 11.798600  8.504140  8.518880
32  1  4.412460  1.020210 11.417000
33  2  7.984780  6.092770 13.092500
34  2  1.510470  2.732910  8.174620
35  2  2.050520  9.032190 11.651900
36  2  3.851570  7.728920  7.453660
37  2  5.554030  6.132120  9.744890
38  2 10.837100  1.679710 12.330300
39  2 11.250100  7.753090 11.509000
40  2 10.346500  1.791140  4.319470
41  2  9.949990  7.355350  9.824140
42  2  6.792440 10.645500  3.743060
43  2  0.002544 11.938800  1.142900
44  2  1.048130 11.556000  6.238500
45  2  5.832700  9.319460  6.784360
46  2  8.380790  0.411155  3.557270
47  2 10.747600  6.954030  7.379260
48  2  4.391960 12.025800  3.101830
49  2  3.745630  3.886000  2.473260
50  2  7.381750 -0.058724  7.121060
51  2 11.973500 11.857200  9.347250
52  2  2.251440 10.807100  3.819840
53  2  2.784870  7.002190  1.759160
54  2  7.848360  5.529480  6.588710
55  2  6.887720  3.694460 11.893500
56  2  9.112350  8.922550  0.317371
57  2  3.190660  1.169190  7.152440
58  2 10.012500 11.526800 11.558100
59  2  2.298060  2.004850 12.655000
60  2  4.482750 10.182200 12.158300
61  2  4.808030  5.717110  3.830440
62  2  4.455990  1.714740  0.173480
63  2 10.301400  4.544290  2.353800
64  2  1.275510  5.712440 13.943400
65  2  5.138070  4.820310  6.992710
66  2  8.193450 11.035900 -0.374733
67  2  1.817380  2.301520  3.017030
68  2  4.723670  3.456520 11.789200
69  2  3.541670  4.455170  8.837260
70  2 10.729500  5.719910  4.852750
71  2  1.676120  9.906580  8.381240
72  2 10.402000  3.180910 10.076700
73  2  9.848750  9.724890  4.307930
74  2  7.561210  1.820410  6.539030
75  2  7.212650  4.179110  0.341090
76  2 11.221600  1.916030  1.514350
77  2  1.823840  6.335140  4.242700
78  2  6.043410 -0.018690 12.538600
79  2  4.493870  7.501180  0.793737
80  2  6.726090  4.775840  3.205710

