Generated by pymatgen.io.lammps.data.LammpsData

78  atoms

 2  atom types

0.000000 11.792866  xlo xhi
0.000000 10.584991  ylo yhi
0.000000 17.144600  zlo zhi
-6.111247 0.000000 0.000000  xy xz yz

Masses

1  106.42
2   78.96

Atoms

1   1  7.733790 4.442770  4.228430
2   1  2.375020 6.286180 11.311400
3   1  2.521490 8.091630  8.827580
4   1  5.732120 4.895270 11.779300
5   1  0.990083 7.518430  3.863370
6   1  0.357313 6.011180 16.369500
7   1  1.085240 0.436545  7.056840
8   1 -4.771910 7.734300 12.521800
9   1  2.336180 8.854370 14.182600
10  1  4.253380 4.013320 14.222500
11  1 -4.054640 9.592630 14.091500
12  1  1.427920 4.605730  3.470040
13  1  7.740120 5.520820  9.657790
14  1 -4.994020 9.640390  4.441470
15  1  7.967900 0.454644  2.267770
16  1 -2.045900 7.452480 17.119600
17  1  5.027720 0.738061  2.383030
18  1  7.685470 4.097640 15.811800
19  2 -0.928875 4.474050 11.911400
20  2 -4.129770 6.657530  5.353020
21  2  8.523030 1.705540 16.919800
22  2  6.849950 6.619700  1.316760
23  2 -0.291806 8.447200  1.295140
24  2 -0.833804 2.914900 14.240100
25  2  1.927880 2.580040  5.533230
26  2  3.758990 0.861341  7.042180
27  2  9.137710 1.066670 10.106200
28  2 -1.234810 8.540930  3.238890
29  2  0.889276 6.123680 13.522200
30  2  8.448560 0.015238 11.903000
31  2 -2.012270 5.808830 15.140200
32  2  6.630020 2.725780 10.821600
33  2  0.094883 5.729010  9.830350
34  2 -2.230340 8.635510  8.637020
35  2 -3.883190 9.323330 10.548800
36  2  2.282540 2.857660 14.770300
37  2 -2.744930 5.916600  7.225730
38  2  4.758820 5.204690  1.679170
39  2  0.828902 9.698850  8.539210
40  2 -2.408290 4.715970  2.202150
41  2  4.817770 1.427040  4.860120
42  2  4.515090 1.971190 12.561400
43  2  8.587490 1.192630 13.979000
44  2  4.976460 6.510910 13.591000
45  2  9.380180 2.139690  2.262140
46  2 10.346800 0.686696  6.254870
47  2  3.594530 0.275310 10.885800
48  2 -0.250046 0.252134  9.006790
49  2  4.431550 6.082990  8.417340
50  2  0.154024 8.415530 11.993100
51  2  0.376366 3.653850  7.098990
52  2  5.844720 7.425520 10.016400
53  2  7.798050 2.039540  8.245880
54  2  1.805420 1.197880  2.472090
55  2  3.798320 5.949520  5.452420
56  2 -5.585610 9.756900 15.725100
57  2  3.411240 2.448130  8.460850
58  2 -0.172325 4.482940  0.858059
59  2  4.574720 8.715770 13.446900
60  2  3.490850 6.763170  2.896720
61  2 -1.072130 6.257980  4.512410
62  2  7.490010 3.800740  6.643110
63  2  2.510880 9.851780  4.415270
64  2  6.570980 0.180379 16.484300
65  2  7.296820 4.472800 13.759900
66  2 -0.134504 8.187000 14.410800
67  2  3.206080 8.005080  6.066280
68  2  6.293600 2.629610  3.174450
69  2 -5.398550 8.585980  6.288300
70  2  1.013020 1.565330 12.935100
71  2 -2.898270 6.079840 11.947200
72  2  0.700162 6.159860  7.654050
73  2  2.761630 5.146140 16.225800
74  2  5.240360 8.450190  3.167930
75  2  3.887160 1.588270 16.885800
76  2  4.250750 7.333810  0.681867
77  2  0.446894 9.932190  5.660440
78  2  0.768348 1.238320  0.252041

