Generated by pymatgen.io.lammps.data.LammpsData

360  atoms

  2  atom types

0.000000 16.871067  xlo xhi
0.000000 22.058404  ylo yhi
0.000000 29.928687  zlo zhi

Masses

1  208.9804
2   78.9600

Atoms

1    1  0.7401  2.325520 13.378500 21.423400
2    1  0.7667  4.432320 16.847600 21.117400
3    1  0.7694  2.420170  6.381480 21.424100
4    1  0.7968  4.519780  9.948730 21.421500
5    1  0.7931  6.776570 13.431900 21.485800
6    1  0.8268  8.501510 17.219300 21.257000
7    1  0.7733  2.187210 20.614400 21.325400
8    1  0.7750  4.365590  2.117570 21.231300
9    1  0.8015  6.523040  5.913600 21.400500
10   1  0.7819  8.718950  9.719140 21.271800
11   1  0.7736 10.979600 13.429200 21.385000
12   1  0.7900 12.896500 16.973400 21.633100
13   1  0.7712  6.271790 20.666000 21.064200
14   1  0.7321  8.570820  2.076910 21.295800
15   1  0.7379 10.883600  5.532830 21.387200
16   1  0.7506 12.618200 10.056600 21.198000
17   1  0.7666 15.181600 13.288100 21.295400
18   1  0.7884 17.095900 17.256500 21.382000
19   1  0.8032 10.839800 20.695900 21.513400
20   1  0.7489 13.018600  2.415360 21.451200
21   1  0.8001 15.059700  6.374050 21.621600
22   1  0.7303 -0.034143  9.951890 21.374300
23   1  0.7897 14.885700 20.911400 21.344500
24   1  0.7666  0.500876  2.520310 21.738800
25   1  0.7432  2.720130 13.349200 28.371000
26   1  0.7476  4.643870 17.274400 28.492200
27   1  0.7771  2.132010  6.210450 28.407300
28   1  0.7944  4.462890  9.749880 28.560300
29   1  0.7642  7.052470 13.376400 28.658500
30   1  0.7445  9.056120 17.137900 28.250700
31   1  0.7638  2.419950 20.700200 28.260900
32   1  0.7773  4.528810  2.442420 28.317700
33   1  0.8040  6.483080  6.069700 28.388200
34   1  0.7409  8.895890  9.611620 28.285000
35   1  0.7406 10.920200 13.423200 28.618500
36   1  0.7733 12.827800 16.985500 28.610600
37   1  0.7582  6.548730 20.872400 28.099200
38   1  0.7803  8.652690  2.242240 28.452200
39   1  0.7934 10.969200  5.822730 28.484700
40   1  0.7366 12.759800  9.352580 28.033500
41   1  0.7313 14.948300 13.280300 28.787300
42   1  0.7399  0.274982 17.185100 28.499800
43   1  0.6838 10.914000 21.153300 28.126600
44   1  0.7614 12.954200  2.312670 28.265600
45   1  0.7659 15.056300  5.808060 28.349600
46   1  0.7920  0.209703  9.596550 28.733900
47   1  0.7541 15.079600 20.902000 28.401400
48   1  0.7332  0.231069  2.375520 28.020700
49   1  0.7517  2.291900 16.041200  1.976120
50   1  0.7898  4.473880 19.759100  1.987060
51   1  0.7901  2.621750  8.630610  1.751970
52   1  0.8214  4.678410 12.108200  1.852150
53   1  0.8254  6.906100 15.976700  1.832700
54   1  0.8089  8.893650 19.180400  2.210090
55   1  0.8054  2.323200  1.008170  1.762950
56   1  0.7865  4.357760  4.655710  1.951540
57   1  0.7379  6.898950  8.273750  1.953290
58   1  0.8041  8.895760 12.004700  1.912110
59   1  0.8215 10.990200 15.739500  2.363290
60   1  0.8000 13.063800 19.356900  1.982470
61   1  0.8096  6.507360  1.171910  1.854500
62   1  0.8080  8.859780  4.647690  1.615130
63   1  0.7330 10.826500  8.271780  1.933320
64   1  0.8235 13.251100 11.734500  2.034650
65   1  0.7884 15.066400 15.828300  1.964350
66   1  0.7875  0.197883 19.471000  1.739190
67   1  0.7901 10.922000  1.204440  1.564410
68   1  0.8048 13.002200  4.659840  1.783330
69   1  0.8272 15.203000  8.356860  2.042530
70   1  0.7558  0.250363 12.009100  2.078520
71   1  0.7883 15.357600  1.128660  1.759480
72   1  0.7828  0.012558  4.951220  1.756120
73   1  0.8173  2.404550 15.649400  7.731190
74   1  0.7651  4.571680 19.302900  8.189950
75   1  0.8081  2.334960  8.453790  8.239940
76   1  0.8283  4.429820 12.029600  8.514080
77   1  0.8291  6.556030 15.682600  8.022110
78   1  0.8172  8.612340 19.311200  8.181710
79   1  0.8024  2.464130  1.221420  7.989350
80   1  0.8312  4.250860  4.706020  8.188750
81   1  0.7402  6.458630  8.433610  8.555880
82   1  0.7391  8.724280 12.031500  8.176840
83   1  0.7938 10.689500 15.732400  8.059010
84   1  0.7944 13.069000 19.509400  7.800950
85   1  0.7641  6.341560  0.977291  7.972300
86   1  0.8268  8.471750  4.659440  8.405820
87   1  0.7555 10.900200  8.470650  8.215250
88   1  0.7550 13.042800 12.143400  8.303470
89   1  0.8233 15.115400 15.576600  7.963720
90   1  0.7630  0.233498 19.361200  8.123430
91   1  0.7905 10.538800  1.056020  8.431410
92   1  0.8190 12.923500  4.436240  8.419540
93   1  0.8148 15.181800  8.365490  8.262940
94   1  0.7723  0.343132 12.092400  8.140380
95   1  0.7367 14.909900  1.195820  8.459240
96   1  0.7915  0.227516  4.743460  8.047560
97   1  0.7611 17.149900 14.756300 12.104400
98   1  0.7437  2.394370 18.297200 11.255500
99   1  0.7744  0.385495  7.371560 11.435000
100  1  0.7984  2.263150 10.807800 11.815800
101  1  0.8217  4.455070 14.287300 11.596800
102  1  0.7752  6.632970 18.224000 11.431200
103  1  0.7927  0.367704 21.802100 11.623800
104  1  0.7817  2.162420  3.545710 11.580900
105  1  0.7926  4.570370  7.327520 11.645300
106  1  0.7939  6.757940 11.213200 11.782800
107  1  0.7975  8.642680 14.607000 11.289900
108  1  0.7913 11.012200 18.248200 11.477300
109  1  0.7457  4.670520 21.789200 11.495500
110  1  0.7750  6.607090  3.715860 11.887500
111  1  0.7526  8.884560  7.069090 11.819800
112  1  0.7778 10.843000 11.179700 11.966600
113  1  0.7904 13.241100 14.822800 11.243300
114  1  0.7753 15.179400 18.185800 11.158500
115  1  0.7552  8.694250 -0.123855 11.470400
116  1  0.8287 10.843200  3.298050 11.463100
117  1  0.8128 13.132000  6.793030 11.767100
118  1  0.7248 15.018300 10.547200 11.731100
119  1  0.7892 12.945800 21.804400 11.580200
120  1  0.7894 15.145300  3.242610 11.640300
121  1  0.8165 -0.114188 15.001000 17.821700
122  1  0.7757  1.938890 18.576000 17.648100
123  1  0.7616  0.119468  7.551710 18.094000
124  1  0.7959  2.158500 11.050800 17.953800
125  1  0.7798  4.096490 14.517300 17.992200
126  1  0.7678  6.630470 18.614800 17.789800
127  1  0.7960 17.067900 22.142300 18.165100
128  1  0.7630  2.220170  3.617890 17.892300
129  1  0.7468  4.282800  7.400210 18.273200
130  1  0.7827  6.758690 10.782000 17.915500
131  1  0.7716  8.846660 14.596900 18.179000
132  1  0.7506 10.924600 18.353300 18.323800
133  1  0.7975  4.269200 -0.225078 17.745800
134  1  0.8102  6.668740  3.349530 18.068400
135  1  0.8118  8.610380  7.222750 18.133800
136  1  0.7686 10.754100 11.192800 17.835700
137  1  0.7708 12.835600 14.945200 18.031600
138  1  0.7715 14.712800 18.441600 17.739100
139  1  0.7773  8.712200  0.078241 18.134900
140  1  0.7770 11.096600  3.570130 17.878700
141  1  0.8142 12.940800  7.307550 18.034900
142  1  0.8144 15.079200 11.357500 17.924000
143  1  0.7898 12.768700 -0.047266 17.708000
144  1  0.7902 14.775000  3.725150 18.137800
145  2 -0.8781  0.371526 14.757200  0.260173
146  2 -0.9093  2.600480 18.518100  0.326227
147  2 -0.9303  0.108634  7.361380 30.145600
148  2 -0.9147  2.682070 10.912500  0.140673
149  2 -0.8101  4.982590 14.585200  0.295298
150  2 -0.8406  6.823410 18.188700  0.073162
151  2 -0.9092  0.476239 21.951400 30.060700
152  2 -0.8360  2.217100  3.612250 30.084300
153  2 -0.8718  4.263660  7.087330  0.223752
154  2 -0.8768  6.842700 10.804600  0.172864
155  2 -0.8838  8.871550 14.398200  0.530818
156  2 -0.8699 10.912700 18.261700 30.253900
157  2 -0.8830  4.509340 22.166800  0.047269
158  2 -0.8740  6.631890  3.664290  0.118770
159  2 -0.9125  8.757780  7.046380 29.861000
160  2 -0.8683 10.965500 10.956800  0.057485
161  2 -0.8614 12.964200 14.524200  0.666808
162  2 -0.8848 14.858200 18.206100  0.190821
163  2 -0.8552  8.505770 22.082500  0.090906
164  2 -0.9346 10.983900  3.601230 30.017700
165  2 -0.8782 13.083100  7.057550 30.161800
166  2 -0.9090 15.121300 10.782900  0.403238
167  2 -0.9071 13.195900 22.134500 30.117000
168  2 -0.9217 15.110800  3.568910 -0.025418
169  2 -0.2710  2.689160 15.909500 26.394600
170  2 -0.2940  4.746600 19.329800 26.314100
171  2 -0.3818  2.589270  8.328180 26.945200
172  2 -0.3916  4.955320 12.202200 26.994500
173  2 -0.3129  6.633240 15.966000 26.730500
174  2 -0.2979  8.971130 19.859200 26.295700
175  2 -0.3460  2.651920  1.050410 26.401300
176  2 -0.2926  4.395200  5.074750 26.544400
177  2 -0.2697  6.439020  8.212540 26.507300
178  2 -0.2517  8.943640 11.883200 26.291900
179  2 -0.4074 10.986200 16.009500 26.779400
180  2 -0.2921 13.204600 19.617400 26.487300
181  2 -0.3606  6.490720  1.367460 26.620400
182  2 -0.3175  8.819930  4.746570 26.872100
183  2 -0.3401 10.753100  8.330520 26.364500
184  2 -0.3190 12.698400 12.352900 26.733300
185  2 -0.2939 14.854000 15.989000 26.778100
186  2 -0.4374  0.187306 19.509700 26.958600
187  2 -0.3568 10.651300  1.510680 26.455200
188  2 -0.3605 12.826200  4.390000 26.600800
189  2 -0.3081 15.360500  8.210760 26.531800
190  2 -0.3395 -0.067864 11.734500 26.934900
191  2 -0.2709 14.781700  1.409610 25.988300
192  2 -0.3233 -0.000806  4.658250 26.228800
193  2 -0.3895 17.122800 14.575800 22.952200
194  2 -0.3016  2.285220 18.149000 23.195700
195  2 -0.2837  0.285001  7.192940 23.473300
196  2 -0.3518  2.241660 10.988500 23.161500
197  2 -0.2966  4.652530 15.164700 23.244300
198  2 -0.3110  6.460190 18.154900 22.929500
199  2 -0.3603 16.843900 21.969800 23.100000
200  2 -0.2970  2.704020  3.899550 23.412100
201  2 -0.3471  4.779890  7.616820 22.968700
202  2 -0.3616  6.819010 11.285500 23.071500
203  2 -0.3296  8.560210 14.874400 23.041800
204  2 -0.3354 10.771700 18.409800 23.130600
205  2 -0.3872  4.088900 21.980500 22.930800
206  2 -0.2975  6.370790  3.222620 23.148600
207  2 -0.3425  8.528370  6.949380 22.941100
208  2 -0.3369 10.566000 10.992400 23.148500
209  2 -0.3355 12.768000 14.504300 23.148900
210  2 -0.2644 14.989900 18.409200 23.368800
211  2 -0.3179  8.234330 21.258500 23.026700
212  2 -0.3081 10.117500  3.531850 23.265000
213  2 -0.3334 13.091600  7.251930 23.192400
214  2 -0.3336 14.589000 11.183200 23.196800
215  2 -0.3575 13.012700 21.967600 23.188400
216  2 -0.2776 14.911100  3.873760 23.480700
217  2 -0.8449  2.468140 13.224100  9.982210
218  2 -0.8471  4.455160 16.916000  9.649420
219  2 -0.8778  2.389240  6.127440  9.878690
220  2 -0.8734  4.552080  9.874330 10.205200
221  2 -0.8965  6.407760 13.520200  9.852620
222  2 -0.8899  8.631920 16.884000  9.769690
223  2 -0.8710  2.386670 20.920300  9.935900
224  2 -0.8535  4.360560  2.447760  9.636860
225  2 -0.8911  6.418210  5.932900 10.041900
226  2 -0.8593  8.832760  9.874780 10.256600
227  2 -0.8661 10.973000 13.470400 10.005000
228  2 -0.8666 13.039300 17.010700  9.537640
229  2 -0.9166  6.552630 20.507700  9.706350
230  2 -0.9154  8.630520  2.594000 10.131000
231  2 -0.8132 11.012700  5.963250 10.009700
232  2 -0.8417 13.243200  9.394770  9.972660
233  2 -0.8815 15.078800 13.481600  9.713840
234  2 -0.8694  0.513496 16.945000  9.544190
235  2 -0.8831 10.589800 20.694600  9.902460
236  2 -0.9607 12.794400  2.296470 10.138300
237  2 -0.8650 14.937400  5.777370  9.698720
238  2 -0.9356  0.478523  9.554150  9.807370
239  2 -0.8945 15.060500 20.586200  9.930130
240  2 -0.9100  0.248532  2.389570  9.946810
241  2 -0.4119 17.223400 14.248900  6.389220
242  2 -0.3037  2.348550 18.217800  6.080580
243  2 -0.3890  0.154356  7.218010  6.597380
244  2 -0.2882  2.646160 10.577100  6.325020
245  2 -0.3893  4.589590 14.282400  6.579600
246  2 -0.3667  6.628010 18.359600  6.335880
247  2 -0.2784 16.812600 -0.217194  6.355910
248  2 -0.4025  2.251310  3.662100  6.467680
249  2 -0.3375  4.479220  7.199380  6.595000
250  2 -0.3835  6.530960 10.719100  6.779620
251  2 -0.3831  8.653890 14.446400  6.470010
252  2 -0.3420 10.608200 18.256500  6.318320
253  2 -0.3711  4.188980 21.778100  6.331220
254  2 -0.3463  6.327070  3.454350  6.492240
255  2 -0.3383  8.698520  6.749250  6.706750
256  2 -0.3235 10.987100 10.940400  6.369310
257  2 -0.3489 12.760900 14.507900  6.460850
258  2 -0.3744 15.022800 18.044700  6.433770
259  2 -0.3787  8.894350 21.780900  6.701460
260  2 -0.3801 10.510800  3.437770  6.993790
261  2 -0.2495 12.763500  7.008330  6.377420
262  2 -0.3355 14.944000 10.431400  6.454830
263  2 -0.3513 12.975100 22.050500  6.616320
264  2 -0.3046 14.801400  3.252590  6.306350
265  2 -0.3629  2.266860 13.040600  3.567470
266  2 -0.3356  4.561380 17.309800  3.643430
267  2 -0.2937  2.286580  6.111430  3.675790
268  2 -0.3567  4.692120  9.715150  3.463560
269  2 -0.3095  6.564700 13.553800  3.525290
270  2 -0.3922  8.820170 16.828700  3.834400
271  2 -0.2825  2.098290 20.822100  3.788660
272  2 -0.3645  4.150670  2.052160  3.640040
273  2 -0.3491  6.713010  5.815790  3.510500
274  2 -0.3682  9.082150  9.679160  3.750660
275  2 -0.3051 11.200600 13.138200  3.742850
276  2 -0.3727 13.092000 16.880300  3.806240
277  2 -0.3923  6.707920 20.803900  3.404270
278  2 -0.3652  8.900930  2.385070  3.236740
279  2 -0.3348 10.937900  5.512680  3.505390
280  2 -0.3688 13.010200  9.414030  3.635170
281  2 -0.3050 15.017900 13.132600  4.005220
282  2 -0.3809  0.157257 17.288300  3.617980
283  2 -0.3300 10.960000 20.429200  3.635330
284  2 -0.2958 12.790900  2.205630  3.515760
285  2 -0.3606 15.087900  6.022040  3.659470
286  2 -0.3338  0.422003  9.686800  3.791340
287  2 -0.3502 15.327700 20.549100  3.497620
288  2 -0.3203 17.236000  2.346330  3.646430
289  2 -0.8582  2.112770 15.822400 19.641500
290  2 -0.8940  4.250680 19.355700 19.466500
291  2 -0.9084  2.289720  8.740840 20.022100
292  2 -0.8609  4.497590 12.171400 19.732400
293  2 -0.8494  6.663860 15.808100 19.663000
294  2 -0.8970  8.580670 19.553300 19.673300
295  2 -0.8873  2.332770  1.241920 19.634100
296  2 -0.8615  4.631980  4.852930 19.792400
297  2 -0.8764  6.603630  8.407240 19.710600
298  2 -0.9122  8.689740 12.089700 19.685600
299  2 -0.9293 10.715400 15.980400 19.893900
300  2 -0.9164 12.770800 19.673700 19.811200
301  2 -0.9277  6.447620  0.977331 19.510500
302  2 -0.8658  8.760270  4.556490 19.379600
303  2 -0.8426 10.710800  8.496740 19.469800
304  2 -0.9316 13.002300 12.343700 19.716300
305  2 -0.9034 14.951500 15.980800 19.747100
306  2 -0.9127  0.158749 19.640000 19.745600
307  2 -0.9057 10.804900  1.129820 19.791200
308  2 -0.9322 13.084300  4.770210 19.833400
309  2 -0.8790 14.741100  8.571490 19.779800
310  2 -0.9212 17.107000 12.199800 19.416600
311  2 -0.8558 15.301600  1.347250 19.789500
312  2 -0.8411  0.288677  5.107750 19.933300
313  2 -0.3546  2.044070 13.526600 16.200400
314  2 -0.2733  4.519620 17.083700 16.022000
315  2 -0.2913  2.114860  6.125140 16.166100
316  2 -0.3265  4.339590  9.608200 16.281900
317  2 -0.3073  6.441750 13.345000 16.360700
318  2 -0.2351  8.510360 16.932400 15.979100
319  2 -0.4148  1.962760 21.012600 16.242900
320  2 -0.3540  4.695810  2.194500 16.320400
321  2 -0.3065  6.271910  5.982750 16.276300
322  2 -0.3647  8.666170  9.513270 16.211000
323  2 -0.4007 10.945100 13.506500 16.407500
324  2 -0.3648 12.780300 17.165600 16.226300
325  2 -0.3485  6.523630 21.003100 16.154300
326  2 -0.2928  9.071620  2.269640 16.105000
327  2 -0.3364 10.714100  6.108960 16.355900
328  2 -0.3136 13.210900  9.785760 16.196900
329  2 -0.3548 14.890800 13.737300 16.148200
330  2 -0.3757 -0.037677 16.978100 16.058400
331  2 -0.3783 10.884300 20.784200 16.386000
332  2 -0.4212 13.079700  2.303140 16.347500
333  2 -0.3414 15.041100  6.230320 16.364500
334  2 -0.3739  0.110544  9.774760 16.318700
335  2 -0.3431 14.846300 20.536300 16.147400
336  2 -0.2998 16.927400  2.499530 16.141300
337  2 -0.3190  2.369730 15.879400 13.541200
338  2 -0.3652  4.565710 19.593100 13.215300
339  2 -0.3606  2.527410  8.404880 13.312900
340  2 -0.3768  4.653090 12.159700 13.354500
341  2 -0.3066  6.377530 15.536700 13.268300
342  2 -0.3421  8.540750 19.341100 13.156900
343  2 -0.2817  2.103360  1.270460 13.550700
344  2 -0.3200  4.221300  4.418420 13.499800
345  2 -0.3420  6.570420  8.673970 13.413500
346  2 -0.3786  8.925200 12.558000 13.346500
347  2 -0.3148 10.757200 15.857100 13.010000
348  2 -0.3767 13.162200 19.365200 12.931900
349  2 -0.3362  6.693810  1.202590 13.395500
350  2 -0.3638  9.384170  4.799350 13.374700
351  2 -0.3098 11.068600  8.086240 13.535900
352  2 -0.3031 12.831700 12.125000 13.578000
353  2 -0.3657 14.857400 16.008000 13.218300
354  2 -0.3529 17.254300 19.015000 13.145000
355  2 -0.2873 10.765700  0.729288 13.492200
356  2 -0.3552 13.075800  4.186730 13.264900
357  2 -0.3497 15.150400  7.996990 13.398200
358  2 -0.3691  0.168590 12.007600 13.527300
359  2 -0.3434 15.174300  0.769092 13.314700
360  2 -0.3277 17.127400  5.056840 13.279600

