Generated by pymatgen.io.lammps.data.LammpsData

504  atoms

  2  atom types

0.000000 17.772384  xlo xhi
0.000000 21.975898  ylo yhi
0.000000 41.650458  zlo zhi

Masses

1  208.9804
2   78.9600

Atoms

1    1  0.8389 -0.365915 14.842600 12.274600
2    1  0.8663  1.962090 18.544000 12.411100
3    1  0.8364 -0.375466  7.510820 12.248600
4    1  0.8628  1.945870 11.192900 12.413700
5    1  0.8591  4.102880 14.918000 12.400100
6    1  0.8368  6.297320 18.524300 12.413100
7    1  0.8434 -0.368003  0.181182 12.253900
8    1  0.8642  1.934400  3.873960 12.401800
9    1  0.8565  4.108650  7.622590 12.398600
10   1  0.8381  6.311620 11.178400 12.410700
11   1  0.8401  8.508130 14.845600 12.262200
12   1  0.8676 10.864800 18.539200 12.418500
13   1  0.8604  4.105020  0.268530 12.372400
14   1  0.8413  6.313740  3.857670 12.415200
15   1  0.8416  8.517690  7.491770 12.268200
16   1  0.8619 10.826100 11.190800 12.409800
17   1  0.8548 13.000200 14.909000 12.395600
18   1  0.8373 15.195700 18.511200 12.388200
19   1  0.8411  8.519670  0.182154 12.243900
20   1  0.8643 10.818800  3.882770 12.390200
21   1  0.8551 12.983800  7.607960 12.392500
22   1  0.8426 15.195000 11.204600 12.420700
23   1  0.8575 12.977900  0.282299 12.358800
24   1  0.8415 15.187700  3.863840 12.400800
25   1  0.8700  1.917950 13.524700  1.453500
26   1  0.8560  4.118520 17.322000  1.575260
27   1  0.8708  1.918760  6.200240  1.435500
28   1  0.8547  4.108130  9.990610  1.548660
29   1  0.8692  6.368940 13.587100  1.358840
30   1  0.8341  8.616590 17.324700  1.630120
31   1  0.8758  1.926660 20.854600  1.465240
32   1  0.8511  4.096960  2.658710  1.542500
33   1  0.8711  6.357670  6.230520  1.329510
34   1  0.8331  8.597690  9.977080  1.609920
35   1  0.8707 10.795600 13.545600  1.449750
36   1  0.8549 13.002200 17.318300  1.569340
37   1  0.8693  6.370050 20.892400  1.368540
38   1  0.8273  8.601600  2.667910  1.620550
39   1  0.8712 10.808300  6.197280  1.431670
40   1  0.8522 12.996200  9.985910  1.559690
41   1  0.8674 15.271300 13.566900  1.352700
42   1  0.8319 -0.280995 17.311900  1.623000
43   1  0.8783 10.819500 20.866100  1.464800
44   1  0.8519 13.001500  2.662390  1.527760
45   1  0.8690 15.238800  6.223970  1.334420
46   1  0.8320 17.500200  9.989250  1.613310
47   1  0.8683 15.233700 20.895000  1.359880
48   1  0.8283 17.492700  2.669550  1.619610
49   1  0.1681 17.411000 15.288100  6.957380
50   1  0.2187  1.891000 17.176500  5.856320
51   1  0.1671 17.418100  7.954160  6.909110
52   1  0.2171  1.918130  9.847810  5.863500
53   1  0.1663  4.225000 15.309400  6.899110
54   1  0.2106  6.366280 17.310900  5.936320
55   1  0.1681 17.406800  0.638058  6.911190
56   1  0.2173  1.915400  2.526410  5.856910
57   1  0.1662  4.239440  7.965490  6.853920
58   1  0.2134  6.348420  9.973830  5.917720
59   1  0.1673  8.532890 15.287700  6.935690
60   1  0.2188 10.794700 17.185200  5.855730
61   1  0.1674  4.254110  0.639570  6.865180
62   1  0.2093  6.359690  2.670290  5.920030
63   1  0.1692  8.519630  7.951690  6.916730
64   1  0.2177 10.797100  9.868400  5.853260
65   1  0.1664 13.130100 15.299900  6.905530
66   1  0.2107 15.241300 17.316300  5.919660
67   1  0.1671  8.511500  0.652829  6.900420
68   1  0.2186 10.801200  2.558030  5.856510
69   1  0.1657 13.127400  7.954130  6.837080
70   1  0.2131 15.227500  9.963520  5.901090
71   1  0.1681 13.126900  0.636125  6.875450
72   1  0.2107 15.238200  2.666510  5.936350
73   1  0.1711  1.979950 13.055600  7.080400
74   1  0.2043  4.081350 18.181600  7.817670
75   1  0.1703  1.986730  5.730640  7.071390
76   1  0.2056  4.078160 10.842800  7.839560
77   1  0.1770  6.278610 12.995800  7.212990
78   1  0.1759  8.590130 18.370400  7.596000
79   1  0.1736  1.976690 20.394000  7.065260
80   1  0.2014  4.091500  3.534350  7.818860
81   1  0.1756  6.273950  5.678810  7.203370
82   1  0.1718  8.579770 11.042000  7.562240
83   1  0.1700 10.870000 13.065700  7.054680
84   1  0.2024 12.969600 18.193100  7.812490
85   1  0.1763  6.296500 20.332000  7.172200
86   1  0.1712  8.577930  3.724510  7.571360
87   1  0.1722 10.866600  5.753500  7.086070
88   1  0.2068 12.973800 10.836800  7.833220
89   1  0.1775 15.175700 13.001200  7.187500
90   1  0.1733 -0.306289 18.367400  7.581440
91   1  0.1728 10.858400 20.404600  7.058250
92   1  0.2039 12.953800  3.541580  7.824860
93   1  0.1763 15.175800  5.689800  7.206500
94   1  0.1710 -0.308897 11.030500  7.560490
95   1  0.1763 15.181300 20.340400  7.203310
96   1  0.1717 -0.298538  3.718220  7.573590
97   1  0.8424  1.937110 13.401500 26.129900
98   1  0.8517  4.157280 17.296900 26.083800
99   1  0.8450  1.925180  6.070170 26.164700
100  1  0.8559  4.124780  9.985350 26.083000
101  1  0.8343  6.305100 13.553800 26.282600
102  1  0.8809  8.495360 17.335300 26.117500
103  1  0.8486  1.933430 20.719900 26.142000
104  1  0.8502  4.152190  2.640970 26.062500
105  1  0.8365  6.312660  6.219470 26.281900
106  1  0.8765  8.487260 10.019500 26.086000
107  1  0.8409 10.825000 13.400400 26.150400
108  1  0.8518 13.057100 17.299600 26.074900
109  1  0.8432  6.328280 20.861000 26.285000
110  1  0.8772  8.490710  2.649960 26.110600
111  1  0.8425 10.810900  6.076500 26.144200
112  1  0.8565 13.023100  9.965490 26.098400
113  1  0.8408 15.214900 13.529900 26.261500
114  1  0.8814 17.377400 17.332700 26.102700
115  1  0.8490 10.806100 20.707400 26.131500
116  1  0.8489 13.036200  2.646700 26.072700
117  1  0.8365 15.203800  6.214890 26.281300
118  1  0.8797 17.376300 10.027900 26.082300
119  1  0.8430 15.197100 20.847400 26.279300
120  1  0.8785 17.381700  2.648150 26.114500
121  1  0.8491  1.963730 16.053400 15.585000
122  1  0.8464  4.099320 19.883900 15.533700
123  1  0.8477  1.958500  8.721800 15.592000
124  1  0.8450  4.120780 12.562600 15.555600
125  1  0.8409  6.254830 16.177200 15.465100
126  1  0.8619  8.638650 19.841400 15.310400
127  1  0.8520  1.962810  1.390280 15.585900
128  1  0.8455  4.103880  5.248820 15.568400
129  1  0.8435  6.256230  8.834850 15.457300
130  1  0.8592  8.642920 12.551300 15.310400
131  1  0.8475 10.840300 16.034700 15.573600
132  1  0.8414 12.980100 19.885400 15.564300
133  1  0.8452  6.261330  1.507130 15.472700
134  1  0.8599  8.625010  5.193170 15.327600
135  1  0.8466 10.855800  8.720390 15.593400
136  1  0.8442 13.000200 12.568800 15.560100
137  1  0.8373 15.147000 16.168900 15.469100
138  1  0.8600 -0.264760 19.844500 15.318800
139  1  0.8487 10.847900  1.403610 15.579700
140  1  0.8490 12.998300  5.264180 15.560200
141  1  0.8479 15.147100  8.849500 15.454700
142  1  0.8593 -0.252179 12.531700 15.309300
143  1  0.8409 15.150800  1.524060 15.463000
144  1  0.8577 -0.243337  5.203660 15.326900
145  1  0.2160  1.941360 12.517500 20.005600
146  1  0.1755  4.173640 17.698600 20.810200
147  1  0.2120  1.937940  5.189210 20.016400
148  1  0.1754  4.177960 10.412000 20.775500
149  1  0.2157  6.396310 12.507400 20.009700
150  1  0.1844  8.530970 17.773700 20.760300
151  1  0.2158  1.955090 19.875800 20.001800
152  1  0.1699  4.165430  3.126280 20.784400
153  1  0.2128  6.396990  5.195130 20.031900
154  1  0.1846  8.516950 10.426000 20.746100
155  1  0.2140 10.829400 12.531500 20.021800
156  1  0.1726 13.061800 17.724000 20.813800
157  1  0.2169  6.392390 19.835100 20.005100
158  1  0.1837  8.516550  3.081480 20.750800
159  1  0.2132 10.827400  5.191710 20.014900
160  1  0.1746 13.055000 10.427600 20.796600
161  1  0.2129 15.283000 12.503400 20.035500
162  1  0.1844 -0.361459 17.776600 20.766500
163  1  0.2163 10.836000 19.869700 19.982600
164  1  0.1721 13.057200  3.123760 20.782900
165  1  0.2125 15.282600  5.179160 20.036600
166  1  0.1842 -0.370878 10.415500 20.750200
167  1  0.2182 15.283800 19.839200 19.987400
168  1  0.1820 -0.353148  3.085640 20.755700
169  1  0.1831  1.912580 15.528400 21.039200
170  1  0.2033  4.180240 20.700800 21.772700
171  1  0.1823  1.939100  8.188460 21.037300
172  1  0.2043  4.186220 13.400600 21.766000
173  1  0.1859  6.410090 15.582300 21.056600
174  1  0.2031  8.585910 20.760100 21.694400
175  1  0.1792  1.963230  0.869728 21.041100
176  1  0.2067  4.178460  6.099450 21.802500
177  1  0.1876  6.397820  8.268540 21.053400
178  1  0.2063  8.589890 13.403400 21.728600
179  1  0.1831 10.817200 15.532000 21.053800
180  1  0.2014 13.063400 20.700100 21.765000
181  1  0.1827  6.361800  0.926013 21.033000
182  1  0.2069  8.583120  6.075440 21.711800
183  1  0.1819 10.835100  8.197670 21.045600
184  1  0.2063 13.063700 13.427600 21.780100
185  1  0.1853 15.302900 15.586900 21.043400
186  1  0.2050 17.470300 20.755200 21.698300
187  1  0.1806 10.846900  0.872916 21.033800
188  1  0.2054 13.066300  6.113930 21.797400
189  1  0.1863 15.276000  8.260770 21.048600
190  1  0.2058 17.478800 13.409900 21.728800
191  1  0.1842 15.257900  0.926530 21.037900
192  1  0.2066 17.472800  6.061100 21.729800
193  1  0.8625  1.894890 15.922900 40.006400
194  1  0.8736  4.092900 19.660700 40.112600
195  1  0.8626  1.905390  8.597540 39.974200
196  1  0.8695  4.099920 12.339800 40.097800
197  1  0.8380  6.394710 15.913800 39.942800
198  1  0.8509  8.585840 19.647200 40.034000
199  1  0.8630  1.894320  1.259950 40.001100
200  1  0.8718  4.094440  5.012500 40.088100
201  1  0.8433  6.422590  8.610070 39.914800
202  1  0.8503  8.569470 12.326000 40.024600
203  1  0.8627 10.775500 15.915800 39.998400
204  1  0.8749 12.978400 19.664800 40.085200
205  1  0.8399  6.401320  1.273760 39.937900
206  1  0.8572  8.586710  5.004250 40.025500
207  1  0.8588 10.766400  8.592650 39.970800
208  1  0.8686 12.976600 12.328900 40.104200
209  1  0.8418 15.288200 15.914600 39.922800
210  1  0.8521 17.471600 19.657400 40.036700
211  1  0.8622 10.774900  1.255970 39.993200
212  1  0.8705 12.972200  5.018750 40.078700
213  1  0.8409 15.318400  8.597030 39.927400
214  1  0.8478 17.466000 12.324900 40.014800
215  1  0.8375 15.268100  1.269820 39.917000
216  1  0.8530 17.460500  5.018650 40.029400
217  1  0.8267 17.465500 14.750900 29.417000
218  1  0.8858  1.941200 18.430400 29.209400
219  1  0.8279 17.452100  7.472960 29.432700
220  1  0.8878  1.919720 11.104700 29.212800
221  1  0.8408  4.128570 14.864300 29.357500
222  1  0.8603  6.342760 18.472500 29.202900
223  1  0.8241 17.484600  0.126932 29.455600
224  1  0.8823  1.936860  3.792580 29.205300
225  1  0.8359  4.141510  7.558010 29.365300
226  1  0.8675  6.346280 11.150200 29.207800
227  1  0.8250  8.564460 14.768000 29.421400
228  1  0.8873 10.806600 18.426700 29.216800
229  1  0.8366  4.108220  0.207319 29.377500
230  1  0.8610  6.344920  3.835320 29.193300
231  1  0.8288  8.588010  7.477240 29.412800
232  1  0.8868 10.808100 11.095200 29.200200
233  1  0.8400 13.017200 14.854600 29.346900
234  1  0.8573 15.228200 18.472400 29.200700
235  1  0.8264  8.593670  0.126129 29.442100
236  1  0.8794 10.820300  3.794120 29.203500
237  1  0.8419 13.015300  7.558190 29.350100
238  1  0.8659 15.230600 11.139300 29.203300
239  1  0.8360 12.998800  0.212211 29.393300
240  1  0.8600 15.228500  3.827460 29.197100
241  1  0.1987  1.914540 14.951600 33.871300
242  1  0.1867  4.136250 20.166700 34.657900
243  1  0.2016  1.895130  7.605960 33.845500
244  1  0.1879  4.136750 12.829300 34.647000
245  1  0.2001  6.342570 14.794900 33.828200
246  1  0.1782  8.538470 20.066900 34.611800
247  1  0.1980  1.918420  0.316015 33.882000
248  1  0.1852  4.135410  5.507190 34.642200
249  1  0.2021  6.360600  7.459620 33.783700
250  1  0.1806  8.538130 12.739900 34.604800
251  1  0.2021 10.787200 14.964000 33.853400
252  1  0.1858 13.003100 20.143100 34.633000
253  1  0.2006  6.351200  0.160328 33.799400
254  1  0.1795  8.542400  5.408160 34.588000
255  1  0.2009 10.807200  7.616220 33.853200
256  1  0.1875 13.021900 12.846900 34.650800
257  1  0.2000 15.239900 14.821400 33.807000
258  1  0.1789 17.432900 20.066700 34.604800
259  1  0.1995 10.794300  0.312612 33.865500
260  1  0.1872 13.019500  5.497210 34.654500
261  1  0.2013 15.235800  7.460100 33.803300
262  1  0.1792 17.423800 12.732300 34.600700
263  1  0.2002 15.239600  0.138016 33.812900
264  1  0.1800 17.429400  5.394670 34.585300
265  1  0.2002 17.471200 15.823200 35.567100
266  1  0.1902  1.937370 18.021200 34.923600
267  1  0.1994 17.459300  8.480490 35.545000
268  1  0.1895  1.944100 10.670200 34.886000
269  1  0.1983  4.109880 15.849900 35.490500
270  1  0.1806  6.316630 17.850200 34.697900
271  1  0.2010 17.463600  1.142600 35.574200
272  1  0.1891  1.961060  3.355350 34.924500
273  1  0.1968  4.122060  8.516840 35.482200
274  1  0.1804  6.327310 10.532100 34.732200
275  1  0.2022  8.578330 15.826800 35.564400
276  1  0.1884 10.816300 18.022200 34.927500
277  1  0.1951  4.128590  1.200740 35.495600
278  1  0.1782  6.308240  3.189710 34.704000
279  1  0.1963  8.577880  8.489360 35.534400
280  1  0.1893 10.841100 10.681000 34.909800
281  1  0.1988 12.990300 15.863900 35.496800
282  1  0.1788 15.214100 17.861000 34.701000
283  1  0.1996  8.574340  1.155640 35.567800
284  1  0.1907 10.824900  3.351200 34.925900
285  1  0.1959 13.010500  8.520580 35.495200
286  1  0.1798 15.191600 10.524900 34.713900
287  1  0.1966 13.006700  1.184140 35.490300
288  1  0.1798 15.195600  3.166430 34.732100
289  2 -0.7738 -0.260588 14.740200 41.566800
290  2 -0.7873  1.935750 18.417900  0.008554
291  2 -0.7735 -0.262533  7.403690 41.560600
292  2 -0.7893  1.914650 11.079700 -0.012206
293  2 -0.7620  4.092570 14.774700 41.590600
294  2 -0.7675  6.329260 18.484000 41.595200
295  2 -0.7688 -0.273593  0.057330 41.569800
296  2 -0.7896  1.898180  3.745730  0.003909
297  2 -0.7581  4.093470  7.450850 41.563600
298  2 -0.7676  6.321660 11.136700 41.584100
299  2 -0.7756  8.615570 14.725300 41.576700
300  2 -0.7861 10.815500 18.436900  0.016988
301  2 -0.7606  4.076010  0.124289 41.574400
302  2 -0.7694  6.326600  3.827160 41.547000
303  2 -0.7745  8.607940  7.393200 41.555200
304  2 -0.7851 10.788500 11.073300 -0.008380
305  2 -0.7558 12.948800 14.790300 41.582000
306  2 -0.7641 15.214500 18.468700 41.568400
307  2 -0.7722  8.625400  0.058290 41.567100
308  2 -0.7895 10.771100  3.768980 -0.010328
309  2 -0.7570 12.992000  7.448650 41.560500
310  2 -0.7672 15.224200 11.138200 41.581500
311  2 -0.7642 12.971200  0.118961 41.577500
312  2 -0.7713 15.213000  3.822240 41.546200
313  2 -0.6617  1.982170 15.966200  2.823090
314  2 -0.6514  4.206560 19.821900  3.019210
315  2 -0.6603  1.986890  8.619820  2.822130
316  2 -0.6474  4.217420 12.502500  3.016760
317  2 -0.6494  6.343660 16.066600  2.789080
318  2 -0.6608  8.594420 19.865500  2.955510
319  2 -0.6649  1.991640  1.292670  2.822250
320  2 -0.6473  4.211630  5.195170  3.001300
321  2 -0.6421  6.325130  8.732400  2.781270
322  2 -0.6587  8.579130 12.540500  2.935770
323  2 -0.6645 10.865300 15.968700  2.823090
324  2 -0.6516 13.081700 19.840400  3.019760
325  2 -0.6523  6.321340  1.403290  2.775380
326  2 -0.6552  8.573130  5.251650  2.943580
327  2 -0.6611 10.871500  8.617220  2.824980
328  2 -0.6470 13.114500 12.508800  3.013630
329  2 -0.6488 15.216900 16.042700  2.779550
330  2 -0.6608 -0.301315 19.870000  2.946240
331  2 -0.6627 10.880500  1.312730  2.822830
332  2 -0.6480 13.087200  5.180980  3.004800
333  2 -0.6445 15.218600  8.730030  2.759800
334  2 -0.6604 -0.298295 12.558800  2.954280
335  2 -0.6480 15.195500  1.411760  2.782160
336  2 -0.6575 -0.316963  5.237650  2.947280
337  2 -0.6376  1.894090 16.192200 10.829900
338  2 -0.6497  4.158240 19.923700 11.075900
339  2 -0.6415  1.896810  8.837160 10.793100
340  2 -0.6434  4.161500 12.577000 11.082600
341  2 -0.6510  6.212960 16.116600 10.823800
342  2 -0.6437  8.590740 19.642700 11.059700
343  2 -0.6392  1.883260  1.502790 10.800900
344  2 -0.6408  4.155410  5.251090 11.109300
345  2 -0.6538  6.229210  8.787080 10.821400
346  2 -0.6467  8.592040 12.348600 11.054400
347  2 -0.6362 10.772100 16.195800 10.825900
348  2 -0.6484 13.035500 19.920100 11.077100
349  2 -0.6541  6.236330  1.437580 10.817600
350  2 -0.6533  8.567460  5.021260 11.071400
351  2 -0.6375 10.767800  8.828230 10.780100
352  2 -0.6431 13.064100 12.563400 11.081300
353  2 -0.6539 15.115700 16.110900 10.808000
354  2 -0.6470 17.473600 19.674200 11.036800
355  2 -0.6449 10.753100  1.517110 10.788200
356  2 -0.6455 13.040200  5.255270 11.087400
357  2 -0.6511 15.098300  8.800060 10.813100
358  2 -0.6475 17.476200 12.346500 11.075900
359  2 -0.6553 15.121300  1.465250 10.817400
360  2 -0.6515 17.449000  5.021470 11.070100
361  2 -0.7972  1.913740 13.668400 13.918700
362  2 -0.8065  4.063170 17.403500 14.010100
363  2 -0.7968  1.918160  6.348430 13.919700
364  2 -0.8054  4.070050 10.088800 14.008800
365  2 -0.7909  6.316690 13.716000 13.884000
366  2 -0.7609  8.645540 17.293300 13.948000
367  2 -0.7981  1.913990 21.005600 13.906200
368  2 -0.7943  4.084210  2.748740 14.008600
369  2 -0.7887  6.315500  6.388090 13.897200
370  2 -0.7591  8.650170  9.968450 13.950700
371  2 -0.8007 10.804700 13.675000 13.905900
372  2 -0.8034 12.972600 17.418600 14.011900
373  2 -0.7887  6.309840 21.047800 13.903100
374  2 -0.7597  8.641570  2.641390 13.955000
375  2 -0.7983 10.782600  6.346200 13.921000
376  2 -0.8026 12.969300 10.089500 14.010000
377  2 -0.7955 15.195500 13.702100 13.894000
378  2 -0.7627 -0.237537 17.304800 13.939100
379  2 -0.7972 10.794700 21.003500 13.901000
380  2 -0.7949 12.951500  2.782450 14.000800
381  2 -0.7869 15.187800  6.390430 13.898300
382  2 -0.7634 -0.248187  9.968470 13.967500
383  2 -0.7835 15.184200 21.053400 13.880800
384  2 -0.7578 -0.224584  2.636140 13.937200
385  2 -0.6278 -0.375766 14.733600 17.031700
386  2 -0.6400  1.877970 18.588100 16.909000
387  2 -0.6245 -0.375596  7.415960 17.051500
388  2 -0.6385  1.891350 11.267900 16.909800
389  2 -0.6803  4.092600 14.900500 17.085900
390  2 -0.6361  6.401070 18.533600 16.849600
391  2 -0.6314 -0.366686  0.068476 16.976400
392  2 -0.6438  1.882250  3.936030 16.894800
393  2 -0.6814  4.092390  7.596060 17.095600
394  2 -0.6328  6.436940 11.197200 16.844300
395  2 -0.6277  8.508980 14.739800 17.039600
396  2 -0.6421 10.751300 18.587900 16.906900
397  2 -0.6794  4.085040  0.237647 17.085000
398  2 -0.6383  6.402920  3.890900 16.851800
399  2 -0.6256  8.499360  7.403880 17.040600
400  2 -0.6379 10.743800 11.252900 16.896400
401  2 -0.6807 12.947100 14.889200 17.104100
402  2 -0.6390 15.310600 18.528700 16.872400
403  2 -0.6295  8.519180  0.065568 16.985800
404  2 -0.6415 10.779500  3.954520 16.903200
405  2 -0.6819 13.012600  7.593600 17.077400
406  2 -0.6342 15.301400 11.195600 16.849800
407  2 -0.6810 12.973300  0.263965 17.100000
408  2 -0.6358 15.306500  3.897550 16.834600
409  2 -0.6425 -0.346916 14.795200 24.886900
410  2 -0.6784  1.810480 18.201100 24.637800
411  2 -0.6374 -0.339469  7.474530 24.920300
412  2 -0.6874  1.820030 10.872300 24.630400
413  2 -0.6740  4.125850 14.773300 24.902200
414  2 -0.6952  6.354880 18.352700 24.652900
415  2 -0.6382 -0.370471  0.097417 24.887300
416  2 -0.6840  1.785900  3.561610 24.638700
417  2 -0.6694  4.126630  7.468600 24.938000
418  2 -0.6951  6.322740 10.996400 24.629600
419  2 -0.6402  8.542920 14.797200 24.894500
420  2 -0.6814 10.697500 18.195000 24.657000
421  2 -0.6710  4.127060  0.120072 24.920800
422  2 -0.6975  6.355410  3.697560 24.660600
423  2 -0.6376  8.512930  7.462890 24.889900
424  2 -0.6826 10.694300 10.862700 24.627400
425  2 -0.6726 13.034400 14.758600 24.923800
426  2 -0.7006 15.242600 18.339900 24.654200
427  2 -0.6425  8.545390  0.091580 24.905300
428  2 -0.6821 10.665400  3.547660 24.627900
429  2 -0.6728 13.017800  7.482570 24.923900
430  2 -0.7002 15.211400 11.006500 24.653600
431  2 -0.6667 13.027300  0.133097 24.916600
432  2 -0.6963 15.225600  3.706370 24.659400
433  2 -0.7323  1.910080 16.040600 27.810500
434  2 -0.8006  4.045070 19.671900 27.699800
435  2 -0.7324  1.890920  8.729000 27.819200
436  2 -0.7979  4.028640 12.344600 27.725900
437  2 -0.7794  6.373480 16.001600 27.817900
438  2 -0.7895  8.598980 19.660400 27.674400
439  2 -0.7360  1.921040  1.377690 27.816500
440  2 -0.7993  4.041550  5.001450 27.729300
441  2 -0.7727  6.385370  8.717260 27.847700
442  2 -0.7925  8.584420 12.330500 27.682100
443  2 -0.7319 10.800600 16.058800 27.801700
444  2 -0.7972 12.923800 19.672600 27.704300
445  2 -0.7692  6.377900  1.358020 27.820200
446  2 -0.7879  8.607110  5.006740 27.669800
447  2 -0.7396 10.793600  8.701350 27.816900
448  2 -0.7988 12.918200 12.321800 27.716600
449  2 -0.7723 15.277600 15.985100 27.813500
450  2 -0.7865 -0.280337 19.669500 27.657300
451  2 -0.7344 10.805500  1.366570 27.826500
452  2 -0.7994 12.924900  5.032330 27.734900
453  2 -0.7739 15.281000  8.691630 27.854100
454  2 -0.7948 -0.306394 12.333900 27.672800
455  2 -0.7668 15.268800  1.366360 27.810400
456  2 -0.7879 -0.285940  4.991640 27.674400
457  2 -0.6427  1.954500 13.466100 30.805600
458  2 -0.6400  4.070040 17.376600 30.748800
459  2 -0.6452  1.954710  6.161710 30.818400
460  2 -0.6389  4.091820 10.085100 30.734200
461  2 -0.6626  6.264310 13.408300 30.730100
462  2 -0.6416  8.591130 17.381000 30.742600
463  2 -0.6470  1.953400 20.773400 30.840900
464  2 -0.6361  4.085240  2.746530 30.756500
465  2 -0.6658  6.285480  6.095520 30.698200
466  2 -0.6420  8.604360 10.087100 30.740400
467  2 -0.6390 10.829600 13.468800 30.812100
468  2 -0.6391 12.961200 17.358000 30.743100
469  2 -0.6631  6.283590 20.710400 30.713200
470  2 -0.6412  8.586970  2.701170 30.783300
471  2 -0.6432 10.822300  6.169070 30.810100
472  2 -0.6384 12.974600 10.065600 30.733200
473  2 -0.6621 15.135400 13.391400 30.720200
474  2 -0.6375 -0.286404 17.384800 30.726100
475  2 -0.6471 10.840100 20.773100 30.837000
476  2 -0.6389 12.981600  2.735330 30.762000
477  2 -0.6632 15.152400  6.089920 30.713700
478  2 -0.6443 -0.287386 10.061500 30.765000
479  2 -0.6644 15.169300 20.702400 30.722900
480  2 -0.6423 -0.295708  2.694500 30.783200
481  2 -0.6724  1.879820 13.466600 38.611000
482  2 -0.6465  4.122300 17.158300 38.678800
483  2 -0.6731  1.886930  6.108010 38.603300
484  2 -0.6480  4.113370  9.846990 38.673800
485  2 -0.6633  6.224440 13.321100 38.559900
486  2 -0.6770  8.569940 17.115000 38.617200
487  2 -0.6724  1.880990 20.773300 38.605900
488  2 -0.6489  4.131560  2.512610 38.690500
489  2 -0.6612  6.212800  6.030650 38.570300
490  2 -0.6831  8.574830  9.804510 38.616900
491  2 -0.6704 10.758800 13.476500 38.602500
492  2 -0.6469 13.007500 17.151400 38.685200
493  2 -0.6603  6.207670 20.636200 38.576500
494  2 -0.6755  8.582320  2.483370 38.641000
495  2 -0.6758 10.770700  6.105170 38.599200
496  2 -0.6476 13.000900  9.853280 38.688200
497  2 -0.6648 15.089900 13.341700 38.574500
498  2 -0.6753 -0.307954 17.130600 38.627900
499  2 -0.6760 10.775900 20.774700 38.607500
500  2 -0.6509 12.988700  2.520520 38.664200
501  2 -0.6635 15.110200  6.016360 38.563700
502  2 -0.6803 -0.287930  9.794840 38.604500
503  2 -0.6637 15.083500 20.640500 38.566100
504  2 -0.6743 -0.303006  2.471280 38.637400

