Generated by pymatgen.io.lammps.data.LammpsData

78  atoms

 2  atom types

0.000000 12.486088  xlo xhi
0.000000 10.204609  ylo yhi
0.000000 17.144600  zlo zhi
-5.891634 0.000000 0.000000  xy xz yz

Masses

1  106.42
2   78.96

Atoms

1   1  0.959071  7.569150  3.737360
2   1  3.980100  1.936090 12.782500
3   1 -2.335300  7.347860  3.830290
4   1  7.311670  2.199110 12.961600
5   1 -0.498380  4.515250  3.917410
6   1  5.636460  5.125790 12.861000
7   1  0.533549  0.470207 10.436700
8   1 -2.078200  5.495280  1.040840
9   1  9.551880  0.314679  9.999730
10  1  1.457270  5.545010  1.175000
11  1  5.633110  7.762610 10.379900
12  1 -0.664230  8.578790  0.968021
13  1  7.064890  4.026660 15.734800
14  1  3.995910  8.587510  7.372600
15  1  3.822130  3.786270 15.450200
16  1 -4.932850  8.751190  7.678030
17  1  5.562390  0.798840 15.725900
18  1 -0.889575  1.340240  7.217280
19  2  3.096260  4.852400  4.407490
20  2  1.706540  5.706870 13.005400
21  2  5.305420  0.532710  4.419320
22  2 -0.457512  8.905470 12.550300
23  2  8.443390  4.312030  4.119760
24  2 -2.991990  5.505260 12.719300
25  2 -3.031670  7.140360 10.879200
26  2 -4.606190  8.494360  0.750620
27  2 -0.453556  4.552100  9.926180
28  2  0.017520  1.981610  1.261420
29  2  1.767310  7.256770 10.352400
30  2  3.061830  8.976950  0.774904
31  2  9.286860  0.833430 15.937500
32  2  7.817300  1.488170  7.191750
33  2  5.872720  7.810240 15.753100
34  2  5.202260  4.599650  7.809240
35  2  1.642100  1.035590 15.735400
36  2  2.893410  1.552780  7.580560
37  2 -0.798897  8.478320  5.351340
38  2  5.807870  0.814672 11.480500
39  2 -2.198590  5.403970  5.278550
40  2  7.601220  4.212310 11.692500
41  2  1.166350  5.687040  5.344800
42  2  4.075050  3.864280 11.338000
43  2 -1.407320  1.252490 11.801300
44  2 -0.257695  4.524860 16.710200
45  2  3.447000  8.576850 11.488200
46  2  1.289600  7.668150 16.898600
47  2 -5.303600  8.760330 12.038300
48  2 -2.077150  7.349910 16.571400
49  2  5.185760  4.885190  0.115621
50  2  5.926950  7.656290  6.119850
51  2  3.619160  1.662190 16.853700
52  2  1.177840  0.558694  6.095490
53  2  6.969920  2.198010  0.107910
54  2 10.055900  0.267097  5.706500
55  2  2.937890  6.713110  2.501940
56  2  2.157150  2.832710 14.039400
57  2 -2.817710  9.214460  2.267450
58  2  7.661800  0.123577 14.506000
59  2 -1.828970  3.218690  2.386430
60  2  7.121140  6.350730 14.404200
61  2  3.643250  5.913510 14.358900
62  2  1.566020  3.390300  2.568710
63  2  8.989680  3.191150 14.458500
64  2 -4.090270  6.155320  2.322870
65  2  4.015860 -0.240447 14.218800
66  2  0.813334  9.762060  2.629090
67  2  2.505800 -0.309697  9.092500
68  2  9.571690  2.371950  8.489370
69  2  4.129390  6.601300  8.750960
70  2 -4.899660  6.917120  9.325090
71  2  1.975580  9.611420  8.430750
72  2  0.700013  2.512650  8.950740
73  2  0.064523  6.279930  8.474150
74  2  5.469000  3.140310  9.622090
75  2 11.366600 -0.337902 13.624600
76  2 -0.418555  6.256070 15.033500
77  2  5.541560  3.230710  1.825050
78  2  5.923480  9.346530  4.426270

