Generated by pymatgen.io.lammps.data.LammpsData

360  atoms

  2  atom types

0.000000 16.677463  xlo xhi
0.000000 21.699897  ylo yhi
0.000000 28.493178  zlo zhi

Masses

1  208.9804
2   78.9600

Atoms

1    1  0.7605  2.008380 12.817500 20.408300
2    1  0.7445  4.447810 16.373800 20.411400
3    1  0.7398  2.169090  5.512150 20.416100
4    1  0.8339  3.982470  9.570260 20.916900
5    1  0.7363  5.971490 13.218300 19.943700
6    1  0.7548  8.222540 16.689500 20.311900
7    1  0.8178  1.528000 20.783200 21.271700
8    1  0.8343  3.722350  1.598370 20.817800
9    1  0.7575  6.003090  5.695690 20.511200
10   1  0.8329  8.470370  9.344390 20.424300
11   1  0.8149 10.871700 12.875100 20.411100
12   1  0.7394 11.868400 16.569800 20.192100
13   1  0.8211  5.798720 20.137000 20.351500
14   1  0.7173  7.848700  2.149810 20.343300
15   1  0.7761 10.003400  5.460940 20.704000
16   1  0.8061 12.310700  8.694120 19.879200
17   1  0.8313 14.068100 12.520800 21.143200
18   1  0.8956 15.878700 16.125500 20.690300
19   1  0.7670 10.130000 20.232100 20.503400
20   1  0.7496 12.393200  1.355830 20.455800
21   1  0.8199 14.486400  5.604650 21.095600
22   1  0.8191 16.439400  9.548840 20.764100
23   1  0.7604 14.188400 20.212400 20.422200
24   1  0.7227 15.906800  2.364260 20.518300
25   1  0.8258  1.718130 13.610300 26.145000
26   1  0.7799  5.173180 16.229700 26.417300
27   1  0.8038  1.167090  5.811500 25.634900
28   1  0.8466  4.551700  9.490650 26.378900
29   1  0.8112  6.483720 12.902700 27.174200
30   1  0.7428  8.539950 16.743500 25.605400
31   1  0.8218  2.145830 19.817100 26.350300
32   1  0.7313  4.342910  2.758290 26.864400
33   1  0.8071  5.579800  5.777320 25.948600
34   1  0.6900  8.709860  9.242670 26.834200
35   1  0.7988 10.186800 12.673300 26.127600
36   1  0.7524 12.200100 16.697300 26.149400
37   1  0.7314  5.931020 20.026800 26.925600
38   1  0.8090  7.898650  2.201260 26.042900
39   1  0.7841  9.854510  5.688190 26.726400
40   1  0.7761 12.768000  8.759770 26.442000
41   1  0.7849 14.320800 12.402100 26.031300
42   1  0.6612 16.201900 17.072400 26.462900
43   1  0.8070  9.700820 20.138900 26.878200
44   1  0.7999 11.710900  2.560340 25.907400
45   1  0.8331 13.943800  5.081680 26.439900
46   1  0.6174 16.471200  8.566070 26.640100
47   1  0.7648 14.208600 20.323600 26.103200
48   1  0.8490 16.457400  2.006010 26.505600
49   1  0.6927  1.555120 15.788200  1.666440
50   1  0.7988  4.384040 18.721600  2.205450
51   1  0.7874  1.662290  7.276830  1.001260
52   1  0.8314  4.067440 11.868700  1.756730
53   1  0.9011  6.031400 15.033800  2.306230
54   1  0.7683  8.186680 19.277600  1.536000
55   1  0.7944  1.605720  1.184700  2.200180
56   1  0.8145  4.004050  4.785380  1.575140
57   1  0.8399  6.563650  8.185950  1.420850
58   1  0.7422  8.718340 11.538500  1.397680
59   1  0.8371 10.710100 15.291400  1.796700
60   1  0.8417 11.786200 18.407100  2.079740
61   1  0.7926  6.271100  1.164140  1.283960
62   1  0.8592  8.275950  4.229750  1.664670
63   1  0.6993 10.394900  7.415950  1.810550
64   1  0.8242 12.450600 11.465500  1.091380
65   1  0.7739 14.229800 15.495300  1.536880
66   1  0.7764 16.462700 19.201000  1.491230
67   1  0.7870 10.165900  0.814676  1.116270
68   1  0.7950 11.946500  4.139380  1.454720
69   1  0.8455 14.358000  8.291610  1.555470
70   1  0.8351 16.486600 11.754400  1.482390
71   1  0.7848 14.158300  1.044620  0.724224
72   1  0.8573 16.012500  4.431820  2.218070
73   1  0.8341  2.255460 15.439600  7.121380
74   1  0.7669  4.303540 19.252400  7.380500
75   1  0.8256  1.172110  8.279050  7.780750
76   1  0.7280  3.645460 11.725300  7.065510
77   1  0.7172  6.451200 15.384500  7.854750
78   1  0.7970  7.807040 19.085300  7.269810
79   1  0.8298  1.866370  0.884479  6.844240
80   1  0.7728  3.340100  4.720540  6.765420
81   1  0.8145  6.061040  7.917040  7.453610
82   1  0.6814  7.708670 11.493600  7.764010
83   1  0.8383  9.704720 15.295500  6.503890
84   1  0.7169 11.971300 18.554400  7.687490
85   1  0.8708  6.234600  1.044420  7.974270
86   1  0.8570  7.772820  4.382590  7.794720
87   1  0.8259 10.233000  8.353890  7.708490
88   1  0.8201 10.855100 11.447200  4.996050
89   1  0.7644 14.265300 15.172600  7.764740
90   1  0.8384 16.253800 18.832000  7.275680
91   1  0.7021 10.213800  1.317610  8.239020
92   1  0.8496 12.149200  4.853060  7.922540
93   1  0.8430 13.863400  8.797260  7.286950
94   1  0.7416 16.406500 11.992800  7.119300
95   1  0.7949 14.287200  0.917249  7.291250
96   1  0.6992 15.909600  4.763750  7.327970
97   1  0.7940  0.142141 14.102500 11.105200
98   1  0.7472  1.599690 17.322900 11.357200
99   1  0.8232 16.415700  6.696220 11.293200
100  1  0.6811  1.638440 10.928100 11.089400
101  1  0.7398  3.947920 14.464100 10.381800
102  1  0.7070  6.101680 17.996000 11.798700
103  1  0.7307 16.518700 21.235200 11.403600
104  1  0.7092  1.842010  2.761520 10.476000
105  1  0.8375  3.643270  7.100530 10.530200
106  1  0.7475  5.892650 10.645000 10.999600
107  1  0.8565  8.240850 14.743600 11.340600
108  1  0.8475 10.261300 17.914600 11.509100
109  1  0.6877  4.098100 20.208100 11.028000
110  1  0.7792  5.720060  3.384020 11.337800
111  1  0.7294  7.586350  6.894390 11.220700
112  1  0.8059 10.027400 10.553600 11.671200
113  1  0.7972 12.484900 13.816700 10.906300
114  1  0.7108 14.243500 17.394200 10.646700
115  1  0.7935  8.726640 21.468300 11.331900
116  1  0.6876  9.865870  3.481230 10.993700
117  1  0.8612 12.070700  6.770570 12.086200
118  1  0.7474 14.262700 10.459800 11.385400
119  1  0.7541 12.588600  0.110403 10.844800
120  1  0.6575 15.145200  3.390040 11.193700
121  1  0.8484  0.073037 13.876500 17.403800
122  1  0.7812  2.024610 18.036400 17.751100
123  1  0.8458 16.403200  6.592000 16.918100
124  1  0.8190  1.908220  9.807270 17.140700
125  1  0.7302  3.784760 14.052400 17.024100
126  1  0.7383  5.792070 17.646000 16.497100
127  1  0.8242 16.636400 20.833500 17.255000
128  1  0.7055  1.603000  3.430770 17.231100
129  1  0.7048  3.752370  6.398930 17.186400
130  1  0.9347  5.835930 10.559000 16.760600
131  1  0.8525  7.714470 14.420900 16.871900
132  1  0.6744 10.481000 17.607400 16.971400
133  1  0.7671  3.730520 21.200100 16.639000
134  1  0.8159  6.110000  3.144320 17.128900
135  1  0.8880  8.366220  6.819700 16.879400
136  1  0.8725 10.427300 10.338800 17.082400
137  1  0.8121 11.729100 14.056600 16.818100
138  1  0.8364 14.316900 17.516500 17.068900
139  1  0.7745  8.195330 21.397500 17.596100
140  1  0.8547 10.238900  3.054130 17.579700
141  1  0.7821 12.501700  6.582290 16.945700
142  1  0.8317 14.357400 10.403900 17.139300
143  1  0.8455 12.226800 21.188800 17.065900
144  1  0.7918 14.723900  2.874480 17.249300
145  2 -0.7716 16.570600 13.916000 28.269900
146  2 -0.7448  2.599840 17.793700 28.028300
147  2 -0.7768 16.382300  6.096830 28.174400
148  2 -0.6545  2.806560 10.619500 28.120500
149  2 -0.7197  4.270560 14.100700 28.482200
150  2 -0.7190  6.140670 17.459900  0.213962
151  2 -0.7535 16.395700 20.963800 28.010600
152  2 -0.5889  1.418490  2.858330 28.399300
153  2 -0.6196  4.355390  7.419450 28.274100
154  2 -0.8445  6.415310 10.742600  0.188522
155  2 -0.6882  7.975040 14.212100  0.364175
156  2 -0.7837 10.041900 17.163500 28.389000
157  2 -0.6400  3.622490 21.450700  0.163248
158  2 -0.8314  6.592100  3.487780 28.128000
159  2 -0.7719  7.460170  6.594340 28.091700
160  2 -0.9158 10.839700 10.433500 28.016000
161  2 -0.7577 12.302900 13.758300 27.879800
162  2 -0.7692 14.181500 18.091900 28.242400
163  2 -0.9862  8.091180 21.474100 28.175200
164  2 -0.9579  9.943180  3.477360 27.864800
165  2 -0.8390 12.377900  6.533310 28.195200
166  2 -0.8803 14.719300 10.089100 28.279600
167  2 -0.7636 11.802800 20.862300  0.015822
168  2 -0.8165 14.149600  3.544390 28.394100
169  2 -0.2810  2.366540 15.702100 24.692700
170  2 -0.3583  4.463780 18.934400 24.970000
171  2 -0.3843  3.127410  7.710740 24.582200
172  2 -0.2924  4.388220 12.168600 25.044100
173  2 -0.5001  6.691480 14.514100 25.111600
174  2 -0.4461  8.168900 19.606000 25.065500
175  2 -0.4222  2.320320  0.570947 25.637400
176  2 -0.6552  2.888970  5.050830 27.383200
177  2 -0.3862  6.635450  8.397000 25.068900
178  2 -0.2659  8.126300 11.273800 24.593300
179  2 -0.4081 10.523500 14.805500 24.514900
180  2 -0.4395 11.556100 18.930200 25.170100
181  2 -0.2445  5.516910  0.585901 24.622700
182  2 -0.3704  7.740420  4.484770 24.603900
183  2 -0.2498 10.280600  8.135980 24.542400
184  2 -0.4198 12.170000 11.465300 24.835300
185  2 -0.4096 15.233200 14.955800 24.983700
186  2 -0.3588 16.535200 18.483800 24.151700
187  2 -0.2925  9.671580  1.198420 24.330100
188  2 -0.4348 11.748700  4.963120 24.802800
189  2 -0.4574 14.566300  7.555870 24.717900
190  2 -0.3538  0.278737 11.784800 24.552500
191  2 -0.5658 13.979200  1.293560 25.503700
192  2 -0.4372 16.119400  4.130480 24.593100
193  2 -0.3746 16.460700 14.110500 21.989800
194  2 -0.2588  1.620700 17.609900 21.940700
195  2 -0.4109  0.798337  6.704830 22.437800
196  2 -0.4873  2.028100 10.687700 22.146200
197  2 -0.2739  4.061230 14.562400 22.493100
198  2 -0.3706  5.778580 17.868300 22.250500
199  2 -0.4332 15.924700  0.330203 22.613400
200  2 -0.4069  1.711970  2.797380 22.402700
201  2 -0.4618  4.425810  6.974610 22.058600
202  2 -0.3742  6.250450 10.724700 21.567300
203  2 -0.2923  8.090360 13.893300 21.963800
204  2 -0.4499  9.861060 17.753500 22.019000
205  2 -0.3556  3.913420 21.069800 22.347000
206  2 -0.3450  5.640400  2.956360 22.605300
207  2 -0.3485  8.079720  6.708800 22.250400
208  2 -0.4230 10.516900 10.659300 21.720400
209  2 -0.4988 12.865600 14.428000 21.975800
210  2 -0.4069 13.700600 17.802100 21.850800
211  2 -0.3633  7.834880 21.250600 21.994800
212  2 -0.2969  9.406080  3.130720 22.531200
213  2 -0.5043 12.038400  6.959810 21.590000
214  2 -0.4615 14.087500  9.879870 21.992600
215  2 -0.2912 12.037200 20.949100 22.709000
216  2 -0.3747 13.549200  2.862860 22.478000
217  2 -0.9148  1.697330 13.078700  9.041770
218  2 -0.8214  3.714960 16.709200  8.970180
219  2 -0.8355  1.843080  6.083980  9.234820
220  2 -0.8267  3.880920  9.544990  9.187470
221  2 -0.7882  6.385500 13.179900  9.894060
222  2 -0.7534  7.872770 17.229700  9.744240
223  2 -0.6811  2.080010 19.989400  8.859660
224  2 -0.7511  4.126150  1.834840  9.058510
225  2 -0.8596  5.821160  5.867280  9.029890
226  2 -0.7950  8.754710  9.095660  9.696670
227  2 -0.5726  9.605560 14.125600  9.085240
228  2 -0.7355 11.681500 16.344300  9.786840
229  2 -0.7980  6.408960 20.509700  9.629050
230  2 -0.9637  7.781780  2.528560  9.506560
231  2 -0.7563  9.733830  5.789920  9.026280
232  2 -0.5945 11.849100  8.621550 10.103200
233  2 -0.7820 14.563100 12.972100  9.333310
234  2 -0.8106 16.542100 16.334500  9.262480
235  2 -0.7816 10.130800 20.158000  9.565880
236  2 -0.8919 12.541600  2.543920  9.229880
237  2 -0.6844 14.172300  5.999830  9.474470
238  2 -0.7512 15.840200  8.677410  9.363870
239  2 -0.8247 14.005900 19.849900  9.153730
240  2 -0.8511  0.362137  1.408260  8.885760
241  2 -0.3280 16.255800 14.497300  5.743440
242  2 -0.4074  1.587740 17.667700  5.963190
243  2 -0.4807 15.745800  7.212350  6.349460
244  2 -0.3757  1.917420  9.983550  5.716860
245  2 -0.4548  4.459090 14.439200  5.719440
246  2 -0.4392  6.338890 17.628000  5.804700
247  2 -0.4228 16.110200 21.359000  5.895880
248  2 -0.5232  1.380120  3.616010  5.327700
249  2 -0.3772  3.737960  7.244330  6.180340
250  2 -0.4492  5.774280 10.208000  6.033590
251  2 -0.5251  8.057430 13.453400  5.968060
252  2 -0.4304  9.757800 17.853300  5.512740
253  2 -0.3839  4.110010 21.646600  5.582630
254  2 -0.2708  6.311500  3.407930  5.599370
255  2 -0.3395  8.324920  7.049020  5.855780
256  2 -0.5082 11.448100 11.356700  8.107910
257  2 -0.3822 12.104600 14.158100  5.743070
258  2 -0.3223 14.220300 17.748100  5.692940
259  2 -0.3777  8.010360  0.086803  6.324690
260  2 -0.2476  9.867470  3.369310  6.051560
261  2 -0.4400 12.153700  7.146010  6.131820
262  2 -0.3415 14.042800 10.845600  5.408040
263  2 -0.2225 11.431900 21.414300  5.939610
264  2 -0.3973 13.706800  3.026790  6.007170
265  2 -0.4000  1.531600 13.187700  3.387690
266  2 -0.4524  4.619390 16.702100  3.575990
267  2 -0.4923  1.881610  5.826260  2.970340
268  2 -0.2155  4.142130  8.861770  2.938950
269  2 -0.3174  6.464720 11.970600  3.459870
270  2 -0.3580  8.120070 16.573500  3.177920
271  2 -0.3811  1.556820 20.392700  3.625090
272  2 -0.4512  4.128740  2.291610  2.989450
273  2 -0.3670  6.371560  5.576930  2.961580
274  2 -0.4762  8.688220  9.141880  3.505350
275  2 -0.6109 10.152800 13.111900  2.995560
276  2 -0.5082 12.409500 16.262100  3.399690
277  2 -0.4410  6.442850 20.680300  2.988750
278  2 -0.3161  8.100460  2.098750  3.205840
279  2 -0.4561  9.826190  5.243550  3.216040
280  2 -0.5855 12.344200  9.516970  2.858890
281  2 -0.3870 14.574800 12.914800  2.913240
282  2 -0.4545 16.027800 16.762100  2.942390
283  2 -0.3096 10.179000 20.466600  3.218300
284  2 -0.3322 12.012000  1.581610  2.866880
285  2 -0.4199 13.686800  5.925790  2.923060
286  2 -0.4198 16.641900  9.539290  2.810050
287  2 -0.3263 13.983100 19.862000  2.706180
288  2 -0.4673 15.368300  2.124910  2.920930
289  2 -0.8062  1.810840 15.237300 19.183600
290  2 -0.7916  3.357000 19.641300 19.270000
291  2 -0.8258  1.356130  7.863170 18.695700
292  2 -0.8981  4.075910 11.166400 18.555900
293  2 -1.0021  5.922410 15.423800 18.530600
294  2 -0.8591  7.811390 18.805900 18.455700
295  2 -0.8056  1.341710  0.824187 18.983400
296  2 -0.8694  4.176110  4.043590 19.073600
297  2 -0.7081  6.328080  8.226880 18.730300
298  2 -0.6499  8.062960 11.390700 18.595500
299  2 -0.8670  9.802660 14.741900 18.849100
300  2 -0.9351 12.180900 18.914200 19.116800
301  2 -0.8239  5.542070  0.872889 18.978600
302  2 -0.9000  8.057780  4.366100 18.665000
303  2 -0.8962 10.493600  7.761990 18.141000
304  2 -0.8645 12.369200 11.780600 18.454300
305  2 -0.7025 14.581600 14.880200 18.511600
306  2 -0.7883 16.142800 18.397100 18.768100
307  2 -0.9719 10.319100  0.754571 18.714400
308  2 -0.7861 12.272200  3.788240 19.150100
309  2 -0.7943 14.549400  8.001240 18.760300
310  2 -0.8063 16.318900 11.949100 19.307900
311  2 -0.9204 14.453100  0.531381 18.641500
312  2 -0.8837 16.282600  4.786370 18.979300
313  2 -0.3910  2.163610 12.106200 15.709600
314  2 -0.4381  3.459440 16.620400 15.553300
315  2 -0.3976  1.552000  5.731680 15.315200
316  2 -0.3035  3.926450  8.955100 15.339500
317  2 -0.3980  5.897210 12.677600 15.518000
318  2 -0.4315  8.203420 16.474500 15.114200
319  2 -0.4418  1.457640 19.623300 15.579800
320  2 -0.3327  3.702440  2.031240 15.234900
321  2 -0.4082  6.267530  5.977690 15.692500
322  2 -0.3719  8.360910  9.376600 15.606600
323  2 -0.4381  9.543740 12.670900 15.862400
324  2 -0.4687 12.747700 16.169800 15.461900
325  2 -0.4049  6.328050 20.577200 15.536600
326  2 -0.3351  8.006210  2.022380 15.599600
327  2 -0.3920 10.359800  5.167920 15.638200
328  2 -0.5286 12.437600  9.179940 15.752100
329  2 -0.2293 14.661700 12.985400 15.448600
330  2 -0.2512 16.518300 16.242000 15.698000
331  2 -0.3731 10.307600 20.069200 15.587400
332  2 -0.2803 12.381200  2.044400 15.689800
333  2 -0.3744 14.537100  4.981100 15.185200
334  2 -0.4153 16.598400  9.233380 15.570300
335  2 -0.3521 14.274000 19.901100 15.577900
336  2 -0.3702 16.503800  2.040500 15.460700
337  2 -0.3866  2.197420 14.925200 12.689900
338  2 -0.4335  3.082340 18.520700 13.137900
339  2 -0.3454  2.278150  8.111650 12.466000
340  2 -0.3187  4.001010 11.474400 12.618600
341  2 -0.3450  5.558890 15.330100 12.944500
342  2 -0.3817  8.396900 18.967100 13.143900
343  2 -0.3476  1.835780  0.163674 12.973600
344  2 -0.3465  3.784520  4.982500 12.489800
345  2 -0.2582  5.970000  8.154690 13.154900
346  2 -0.3366  7.876630 12.255200 12.685000
347  2 -0.3603 10.146300 14.939700 13.057500
348  2 -0.3489 12.122400 19.736400 12.443200
349  2 -0.2868  5.969830  0.704241 12.881700
350  2 -0.2836  7.704750  4.561080 13.370700
351  2 -0.4304  9.797570  7.735560 12.945700
352  2 -0.3948 12.277500 12.040900 13.037500
353  2 -0.4097 14.855600 14.845500 12.449700
354  2 -0.2968 15.398500 18.801500 12.863800
355  2 -0.2706 10.103100  1.090270 13.128300
356  2 -0.3735 12.132700  4.038490 12.722400
357  2 -0.4492 14.589600  8.084070 12.906500
358  2 -0.2756 16.025600 12.023200 13.297100
359  2 -0.3782 13.983500  0.965764 12.678000
360  2 -0.4045  0.449143  4.314220 12.712600

