Generated by pymatgen.io.lammps.data.LammpsData

78  atoms

 2  atom types

0.000000 11.792866  xlo xhi
0.000000 10.584991  ylo yhi
0.000000 17.144600  zlo zhi
-6.111247 0.000000 0.000000  xy xz yz

Masses

1  106.42
2   78.96

Atoms

1   1  5.102640  0.484323  8.090390
2   1  6.259410  1.835470 14.424500
3   1  6.981890  3.817780 13.073700
4   1 -3.204210  8.560600 12.611600
5   1 -1.641650  2.319990 12.695700
6   1  8.409980  0.286540  8.531950
7   1  2.355800  1.923610 12.174900
8   1  0.940626  4.694760 11.660600
9   1  7.861090  3.179290  3.875630
10  1  5.025660  5.382860  6.984510
11  1  5.788630  7.912200  5.690410
12  1 -2.898670  7.974050 14.950900
13  1  8.149280  5.217510 15.508500
14  1 -3.661760  9.108140  7.314640
15  1  2.244880  8.065580 14.728500
16  1  0.863367  7.733790  4.443640
17  1 -0.275906  5.645840  0.334061
18  1  2.828270  3.313990  5.694200
19  2  2.327520  2.306470  1.441720
20  2  3.787050  3.277140 16.571700
21  2  7.815040 -0.241058 10.707400
22  2 -5.102720  8.415200 15.819000
23  2  3.229370  9.814590 13.131500
24  2  5.923680  2.478750  1.474070
25  2  0.034208  1.773260  2.591080
26  2  4.297620  8.492160  8.918000
27  2  3.212580  7.513810 11.989700
28  2  1.455290  4.019700  9.224950
29  2  8.675800  0.030466 15.912100
30  2  2.449340  6.217890 15.895400
31  2 -2.743830  5.525310  3.901050
32  2  3.129810 -0.290173 15.417700
33  2  3.012710  1.531620  4.252950
34  2  2.237870  8.254110  7.976330
35  2  3.695170  4.739430 14.682100
36  2 -2.645080  3.121690  6.044880
37  2 -3.305170  6.078780 10.244200
38  2  4.703760  1.170910 12.286300
39  2 -2.114350  8.125080  9.148390
40  2 -1.548030  6.160730  5.826700
41  2 -0.555642  3.760570 10.399600
42  2 -4.013680  8.589360  3.987560
43  2  5.222960  2.441370 10.369400
44  2  5.049370  4.663710 12.072500
45  2 -5.458470  9.582330  9.160810
46  2  4.905060  8.735640  3.407510
47  2  5.520830  2.890000  7.712330
48  2  0.903154  2.461450 15.041100
49  2 -2.428080  6.762080  0.034788
50  2  6.163180 -0.596831 16.833500
51  2 -1.034190  4.617860 15.228200
52  2  8.906910  2.372350 16.437500
53  2  0.881154  1.588080  5.250300
54  2  5.921480  3.965290  4.700480
55  2 -0.696233  0.927554 15.804100
56  2  0.313404  7.668420 16.456800
57  2 -1.779840  6.653620 11.831800
58  2  2.660550  6.739330  2.923880
59  2  5.629210  8.005970  0.761866
60  2  6.363480 -0.369666  5.956220
61  2  3.645910  5.124450  3.985710
62  2  7.876460  0.804650  1.499710
63  2  9.269080  1.118730  6.401590
64  2  5.843200  6.896670 12.473800
65  2 -0.282078  1.004100 11.524200
66  2  3.046490  0.542697 10.144800
67  2  3.302240  8.509360  0.223866
68  2 -1.317830  3.657000  2.339460
69  2  0.202835 -0.331707  5.993550
70  2  6.450850  6.991920  8.216920
71  2 -1.710460  8.892170  4.801680
72  2  7.828540 -0.501744  3.685390
73  2  0.584687  8.299870 12.137000
74  2  2.709900  2.093670  7.522340
75  2  6.546980  4.661520  0.420223
76  2  8.167160  2.256480 10.664700
77  2  0.473735 -0.816193 12.453100
78  2  2.536090  6.799520  6.175850

