Generated by pymatgen.io.lammps.data.LammpsData

216  atoms

  2  atom types

0.000000 18.096178  xlo xhi
0.000000 18.140645  ylo yhi
0.000000 18.233787  zlo zhi

Masses

1  208.9804
2   78.9600

Atoms

1    1  0.6878 17.874800 17.610800 17.286000
2    1  0.8162  0.481388 17.991700  5.384990
3    1  0.8014  0.066548 17.664200 11.530300
4    1  0.7810 18.114700  5.348560 17.717900
5    1  0.9050 -0.119178  5.626750  5.406840
6    1  0.7806 -0.106317  5.878680 11.684900
7    1  0.8119 -0.231784 11.007000 17.511200
8    1  0.5943  0.391749 11.491600  5.144960
9    1  0.6973  0.328781 11.666100 11.851200
10   1  0.8154  6.128170 17.366000 17.320200
11   1  0.7683  6.496220 17.455900  5.476530
12   1  0.7915  5.660640 18.104500 10.997500
13   1  0.6500  6.546150  4.999650 17.933300
14   1  0.8249  5.778210  5.720030  5.552390
15   1  0.7722  6.063510  5.917550 11.158100
16   1  0.7431  6.258430 11.633800 18.114700
17   1  0.9105  6.025620 11.713800  5.598710
18   1  0.7043  6.221220 11.003200 11.558700
19   1  0.8754 12.272800 17.000000 17.788700
20   1  0.6488 12.742300 17.477200  6.173270
21   1  0.7697 12.078700 17.730200 12.245500
22   1  0.6995 12.124700  5.569270 17.589100
23   1  0.7240 11.705800  5.744810  5.646580
24   1  0.7594 12.390500  5.019700 11.629900
25   1  0.7535 12.265400 11.338700 18.148200
26   1  0.8279 11.559400 11.651900  5.458850
27   1  0.7945 11.661400 11.224800 11.586500
28   1  0.7239 18.416800  2.391370  2.109170
29   1  0.7643  0.112171  2.278100  8.482810
30   1  0.7719 18.124800  2.709190 14.516700
31   1  0.8315  0.335891  7.962210  3.053980
32   1  0.7786  0.683271  8.573430  8.819020
33   1  0.6732  0.846336  9.239800 14.425700
34   1  0.7682 17.790500 14.118500  2.651050
35   1  0.8105  0.564782 14.460600  9.196360
36   1  0.7241 18.456800 14.157400 14.919100
37   1  0.7260  6.370800  2.030420  2.627780
38   1  0.8465  5.897270  2.796230  8.453560
39   1  0.7254  6.785040  2.495080 14.798600
40   1  0.8017  6.461260  8.556320  2.979180
41   1  0.7816  6.378090  8.067620  8.425860
42   1  0.8888  6.249000  8.353370 15.160400
43   1  0.7515  6.059380 14.184500  1.867860
44   1  0.7147  6.230140 14.358600  8.752320
45   1  0.6749  5.804060 13.798600 14.219900
46   1  0.7290 12.219100  2.849140  2.019270
47   1  0.7453 11.785800  2.102220  8.535460
48   1  0.7280 12.071200  2.754390 15.156200
49   1  0.8457 13.005000  8.446100  3.043380
50   1  0.8273 12.129900  8.258250  8.649380
51   1  0.6801 12.581200  8.798920 15.793100
52   1  0.6950 12.292700 15.147100  2.940780
53   1  0.7437 11.553600 14.873200  8.980000
54   1  0.8947 12.389800 14.518000 14.923400
55   1  0.7255  3.064240 17.398300  2.812850
56   1  0.6835  2.799950 18.209500  9.107230
57   1  0.8435  3.475730 17.749900 14.313400
58   1  0.7366  3.026090  5.731860  2.967910
59   1  0.7594  3.167060  5.513450  8.827450
60   1  0.8010  2.733050  5.471670 14.896500
61   1  0.7817  2.859420 11.478800  2.765040
62   1  0.9187  3.293600 11.589000  8.424950
63   1  0.5377  2.858530 11.474100 14.469400
64   1  0.7705  9.301070 18.052200  2.630090
65   1  0.8792  8.838600 17.509400  8.928440
66   1  0.7516  9.068080 17.173100 14.870400
67   1  0.7146  9.089200  5.575340  2.294890
68   1  0.7693  9.874980  5.665700  8.279350
69   1  0.7916  8.243780  5.761710 14.133900
70   1  0.7673  9.032990 11.915800  3.060370
71   1  0.7544  9.049270 11.892600  9.009410
72   1  0.8532  8.987890 11.733500 14.350000
73   1  0.7408 14.518800 17.467500  3.309710
74   1  0.6678 15.315900 17.359300  9.301670
75   1  0.8492 15.578800 17.489800 15.053700
76   1  0.6127 14.658300  5.002210  1.701170
77   1  0.8615 15.567000  5.625370  8.180700
78   1  0.7545 14.508300  5.575820 14.407000
79   1  0.7826 15.487800 11.807100  3.287890
80   1  0.7350 15.243400 11.698500  8.725940
81   1  0.7639 14.450000 11.587000 14.368000
82   1  0.7313  2.514150  1.927110 17.268200
83   1  0.7012  3.605130  2.898420  5.364090
84   1  0.7012  2.775590  2.482800 11.767100
85   1  0.8047  3.622690  8.573570  0.081510
86   1  0.8187  3.147870  8.892660  5.531510
87   1  0.7779  3.276390  8.104550 11.794900
88   1  0.6967  2.951500 13.772100 16.711000
89   1  0.9308  3.011040 14.867700  5.026240
90   1  0.7834  3.506140 14.917400 11.421800
91   1  0.7093  8.814440  2.226050 17.719800
92   1  0.7281  9.262430  2.669090  5.008600
93   1  0.9134  9.406600  2.865390 11.659000
94   1  0.8398  9.353440  8.949500 18.103600
95   1  0.8246  9.459000  8.764860  5.595740
96   1  0.7166  9.202850  8.603600 11.992000
97   1  0.7379  8.418910 14.575700 18.087100
98   1  0.6749  9.053630 15.020700  5.168720
99   1  0.7304  9.048910 15.300900 12.197100
100  1  0.6970 14.814300  2.259800 17.436000
101  1  0.8915 15.086600  2.817330  5.535830
102  1  0.7308 14.863400  2.400300 11.038300
103  1  0.6784 15.671300  7.873190  0.705841
104  1  0.7017 16.295600  9.781990  5.991020
105  1  0.8272 15.219700  8.809120 11.600600
106  1  0.8465 15.297800 13.791100 18.007900
107  1  0.7014 14.720600 14.323000  5.528400
108  1  0.7185 15.505800 15.028900 11.286400
109  2 -0.6822  3.234900 17.475800 17.469600
110  2 -0.8170  3.196120 17.314300  5.389050
111  2 -0.9283  3.135030 17.391600 11.768700
112  2 -0.6882  2.469100  5.413980 18.040200
113  2 -0.7767  2.971000  6.033140  5.859940
114  2 -0.8313  3.465600  5.454250 11.743200
115  2 -0.7897  3.129700 11.015200 17.572100
116  2 -0.8112  3.082220 12.123200  5.313470
117  2 -0.7750  3.552520 11.406100 11.131400
118  2 -0.7997  8.943050 17.293800 17.552000
119  2 -0.7787  9.251590 17.956700  5.469400
120  2 -0.7154  8.845730 17.770300 12.046500
121  2 -0.7340  9.310000  5.895510 17.535200
122  2 -0.7663  8.877750  5.906630  5.633770
123  2 -0.7323  9.391480  6.019700 11.634900
124  2 -0.7269  9.261440 11.667000 18.349200
125  2 -0.7832  8.821260 11.521900  6.033210
126  2 -0.9213  9.226510 11.812000 11.828000
127  2 -0.6829 15.134000 16.990300 17.838400
128  2 -0.6866 15.546700 17.440400  6.232390
129  2 -0.7858 15.704800 17.695700 12.120000
130  2 -0.9013 14.726600  5.193510 17.059100
131  2 -0.6935 15.536800  5.339210  5.477160
132  2 -0.7276 15.160200  5.528820 11.479800
133  2 -0.6952 15.484400 11.200200  0.592064
134  2 -0.7732 14.139800 11.608400  5.867500
135  2 -0.7315 14.799700 11.527900 11.558400
136  2 -0.7793  3.286050  2.862690  2.690070
137  2 -0.8911  3.030870  2.811800  8.693170
138  2 -0.7939  3.076000  2.430770 14.619300
139  2 -0.8619  3.227240  8.565630  2.844570
140  2 -0.7955  3.138660  8.879870  8.293440
141  2 -0.7299  3.320820  7.998920 14.829500
142  2 -0.7152  2.838680 14.401700  2.495460
143  2 -0.6902  3.297860 14.486300  8.165200
144  2 -0.8651  3.118160 14.436100 14.148400
145  2 -0.9018  9.208860  2.469020  2.033530
146  2 -0.6808  9.144870  2.489100  9.127880
147  2 -0.7681  9.601690  3.290940 14.351400
148  2 -0.7034  9.576030  8.825340  2.990120
149  2 -0.7966  9.169630  8.218530  8.633840
150  2 -0.6608  9.064500  8.676180 15.313400
151  2 -0.7866  9.913950 14.436100  2.121190
152  2 -0.8326  8.793160 14.873700  8.629280
153  2 -0.7727  9.121880 14.302900 15.164000
154  2 -0.7131 15.016000  2.298150  3.109660
155  2 -0.7890 14.698500  2.736590  8.468070
156  2 -0.6970 15.587000  2.085460 14.388000
157  2 -0.7153 15.733900  8.828890  3.408440
158  2 -0.7219 15.518400  8.717590  8.782910
159  2 -0.6812 15.209100  8.842350 14.319600
160  2 -0.8880 15.362900 14.473400  2.814460
161  2 -0.7654 16.060100 14.665400  8.611530
162  2 -0.6713 15.130900 14.788500 14.652700
163  2 -0.6454 17.625100 17.632700  2.497030
164  2 -0.8057  0.132373 17.716200  8.789980
165  2 -0.7300  0.154858 18.043200 14.324100
166  2 -0.7542 17.532900  5.490480  2.732710
167  2 -0.7401  0.001888  5.335080  8.540850
168  2 -0.6479 17.678300  6.181880 14.730900
169  2 -0.7778  0.043764 11.129500  2.472010
170  2 -0.7745  0.560514 11.557200  8.573870
171  2 -0.7781 17.002200 11.653500 14.918400
172  2 -0.7540  6.407470 17.493900  2.471810
173  2 -0.7866  6.337960 18.182200  8.351030
174  2 -0.6896  6.217690 17.985300 14.228200
175  2 -0.8195  6.238560  5.855030  2.870690
176  2 -0.8437  6.192390  5.551380  8.243350
177  2 -0.7299  5.775770  5.655010 15.080600
178  2 -0.8312  6.304060 11.603800  2.881090
179  2 -0.7733  5.905190 11.394400  8.255870
180  2 -0.8164  6.294060 11.046700 14.366500
181  2 -0.7553 12.118000 18.224400  2.248510
182  2 -0.8393 11.546500 17.526500  9.213430
183  2 -0.7536 12.395500 17.131900 14.962200
184  2 -0.8176 11.903900  5.947630  2.788710
185  2 -0.8287 12.378100  5.769760  8.563040
186  2 -0.6296 11.594500  5.956650 14.515000
187  2 -0.6662 12.457800 11.335400  2.838580
188  2 -0.6965 11.750300 11.666400  8.852970
189  2 -0.7831 11.583600 11.960800 14.768800
190  2 -0.8902 17.845400  2.462670 17.655500
191  2 -0.7148  0.344357  2.569920  5.381760
192  2 -0.7473 17.918800  2.739460 11.464900
193  2 -0.6655 18.478500  8.149530 18.503600
194  2 -0.8632  0.328244  8.214530  5.788660
195  2 -0.8575  0.483548  8.561890 11.831300
196  2 -0.7713 -0.225608 13.689000 17.692700
197  2 -0.6321  0.464080 14.859700  5.727220
198  2 -0.8020 18.602900 14.126100 12.062200
199  2 -0.7871  6.109470  1.916910 17.628400
200  2 -0.7716  6.358690  2.559530  5.682980
201  2 -0.6834  6.603750  2.992830 11.472000
202  2 -0.7751  6.507440  9.252220 18.009800
203  2 -0.7523  6.219680  8.824570  5.606080
204  2 -0.8132  5.858550  8.213530 12.325500
205  2 -0.8341  5.282260 14.666400 17.864900
206  2 -0.7426  6.311400 14.425600  4.788320
207  2 -0.7693  6.239000 15.458600 11.785200
208  2 -0.8262 12.158600  1.906170 17.598100
209  2 -0.7549 12.346400  2.555250  5.699260
210  2 -0.8487 11.770400  1.991300 11.966800
211  2 -0.8169 12.472400  8.304400  0.034984
212  2 -0.6520 12.477500  8.803850  5.781730
213  2 -0.6726 12.160200  8.168250 11.415000
214  2 -0.7031 12.674400 14.374700 18.021000
215  2 -0.8590 12.027100 14.823900  6.053720
216  2 -0.6992 12.372800 14.448200 12.270000

