Generated by pymatgen.io.lammps.data.LammpsData

6  atoms

2  atom types

0.000000 5.258802  xlo xhi
0.000000 4.822909  ylo yhi
0.000000 4.622868  zlo zhi
2.096319 2.096319 1.374601  xy xz yz

Masses

1  208.9804
2   78.9600

Atoms

1  1 5.944660 3.898039  2.907639
2  1 3.506780 2.299470  1.715229
3  2 0.000000 0.000000  0.000000
4  2 1.048160 0.687300  2.311434
5  2 2.629401 0.000000 -0.000000
6  2 1.048159 2.411454 -0.000000

