Generated by pymatgen.io.lammps.data.LammpsData

216  atoms

  2  atom types

0.000000 18.096178  xlo xhi
0.000000 18.140645  ylo yhi
0.000000 18.233787  zlo zhi

Masses

1  208.9804
2   78.9600

Atoms

1    1  0.7428 17.602800 17.292300 -0.160698
2    1  0.8673  0.567991 17.672700  5.657390
3    1  0.7106 17.638600 17.508500 11.878300
4    1  0.8312  0.527074  5.500670 17.303700
5    1  0.7215 18.404200  5.587280  5.200670
6    1  0.7496  0.272868  5.680530 11.886900
7    1  0.8162  0.883773 10.786000  0.069874
8    1  0.7657 17.369900 12.319800  5.707210
9    1  0.6639  0.144546 12.209400 11.961300
10   1  0.6883  6.344020 18.201600  0.121931
11   1  0.7564  6.404070 -0.100488  6.264470
12   1  0.7984  6.294890 18.018000 12.455100
13   1  0.7812  6.185730  5.959420 18.388200
14   1  0.9109  6.561110  5.617300  5.778770
15   1  0.8038  6.384580  6.289080 11.464300
16   1  0.8375  6.487150 11.770000 -0.276946
17   1  0.6467  6.107800 11.282400  6.152760
18   1  0.8245  5.874360 11.723600 11.815300
19   1  0.7829 12.197200 17.806300 17.754900
20   1  0.7143 12.678700 -0.033586  5.640250
21   1  0.7747 11.942300 17.839700 11.827900
22   1  0.7956 12.150900  5.262560 17.339100
23   1  0.8215 12.464800  6.025390  6.009690
24   1  0.8672 11.843700  6.122270 11.966200
25   1  0.6945 12.124100 11.465500 17.355300
26   1  0.7806 12.191800 11.643900  5.891670
27   1  0.7148 11.933700 12.211600 11.656800
28   1  0.7910  0.393918  2.967340  1.957840
29   1  0.6793 18.340200  2.519070  8.066830
30   1  0.8517  0.911224  2.825170 14.425700
31   1  0.7412 -0.063870  8.575310  2.734620
32   1  0.8020 17.676200  8.858860  8.683830
33   1  0.6253  0.377536  9.804400 14.389100
34   1  0.8145  0.165521 14.654400  2.817550
35   1  0.7856  0.586879 14.656800  8.532990
36   1  0.6864 -0.172341 14.668000 14.458200
37   1  0.7860  6.444820  2.754260  2.292670
38   1  0.6969  6.289550  2.887890  8.697500
39   1  0.7683  6.364610  2.289060 15.050700
40   1  0.7579  6.617730  8.619400  2.950440
41   1  0.8093  5.876910  8.285800  8.563160
42   1  0.7765  6.482850  8.509520 14.257800
43   1  0.8083  6.362960 15.093000  2.916970
44   1  0.7799  6.441170 14.270200  8.830450
45   1  0.8389  6.107940 14.764600 14.449000
46   1  0.7064 12.475200  2.988100  2.652330
47   1  0.8746 12.195600  2.954890  9.270890
48   1  0.7112 12.525900  2.634570 14.953300
49   1  0.8154 11.944300  8.986730  2.722410
50   1  0.8107 12.322100  8.923500  8.544950
51   1  0.7568 12.548400  8.677920 15.015200
52   1  0.8811 12.067500 14.683500  3.038100
53   1  0.7485 12.112600 15.689900  8.492270
54   1  0.7179 11.565300 14.309300 14.547900
55   1  0.7519  3.636940 17.204100  2.494320
56   1  0.7694  2.914990 17.231300  9.187640
57   1  0.7586  3.989280 17.254300 14.854100
58   1  0.7193  3.239750  5.831120  2.815330
59   1  0.7264  3.153910  5.887870  8.971220
60   1  0.9177  3.534550  6.034890 14.765400
61   1  0.8537  3.339590 11.960500  2.956100
62   1  0.8443  3.256380 11.776700  8.832000
63   1  0.8084  3.380100 11.311800 15.466000
64   1  0.9130  9.414850 -0.388880  2.746210
65   1  0.7177  9.340290 17.877800  8.322550
66   1  0.8114  9.233310 18.010400 14.813500
67   1  0.7698  9.722520  5.801570  2.749240
68   1  0.8914  9.351490  5.830460  8.815010
69   1  0.8533  8.740980  5.945300 14.708900
70   1  0.8399  9.199990 11.813800  2.783870
71   1  0.7313  9.050800 11.999600  8.181760
72   1  0.6077  9.483340 11.450700 14.464100
73   1  0.7200 15.281100 17.786000  2.345770
74   1  0.7655 15.640200 17.917500  8.487350
75   1  0.8021 15.585900 17.587600 14.840400
76   1  0.7903 15.625700  5.897630  2.638490
77   1  0.7447 15.488900  5.998920  9.106430
78   1  0.6741 16.089600  6.176140 15.047100
79   1  0.8061 14.851700 12.046300  2.745340
80   1  0.7553 15.115700 12.141700  8.947780
81   1  0.7440 15.605600 12.200300 14.539000
82   1  0.7821  3.357640  2.258020 17.732200
83   1  0.7718  3.416850  2.245910  6.153760
84   1  0.7184  3.870080  2.619530 11.975400
85   1  0.7542  3.486600  8.794440 18.019500
86   1  0.7911  3.309950  9.054370  5.995560
87   1  0.8673  2.474180  8.610370 11.672800
88   1  0.8652  2.934300 14.529700 18.287300
89   1  0.7720  3.355240 14.702100  5.621880
90   1  0.7125  3.465370 14.300200 11.986300
91   1  0.6886  9.762470  2.910160 17.897400
92   1  0.7939  9.350570  2.879280  5.509850
93   1  0.7688  9.219030  2.516100 11.825700
94   1  0.7892  9.641880  8.624140 17.757700
95   1  0.7397  9.062510  8.625440  5.682090
96   1  0.7963  9.633750  8.921300 11.976300
97   1  0.7437  8.625680 14.388000 17.474900
98   1  0.8153  9.147280 14.983900  5.590970
99   1  0.9103  8.835230 14.492600 11.561700
100  1  0.7610 15.970700  2.028440 17.501700
101  1  0.7263 15.842900  2.544920  5.666650
102  1  0.7533 15.500500  2.466220 11.388000
103  1  0.7873 15.413400  8.981000 17.908800
104  1  0.7422 14.904100  8.111490  5.980920
105  1  0.7913 15.263500  9.056600 11.768000
106  1  0.8157 14.710800 14.713600 17.945600
107  1  0.7798 14.777500 14.898300  5.555130
108  1  0.7988 14.724200 14.929300 12.209200
109  2 -0.7253  2.994430 17.118400 17.713500
110  2 -0.7622  3.521310 17.771100  6.343920
111  2 -0.7784  3.472890 17.602100 12.097200
112  2 -0.7500  3.233850  6.076300 17.661200
113  2 -0.6888  3.538160  5.746210  5.538960
114  2 -0.7803  3.649440  6.101620 11.966700
115  2 -0.7744  3.404840 11.625500  0.045629
116  2 -0.7653  2.636290 11.753600  6.008380
117  2 -0.8349  2.878440 11.660500 11.682400
118  2 -0.7268  9.145620 17.782000  0.005113
119  2 -0.7976  9.554870 -0.133942  5.372950
120  2 -0.7268  8.898220 17.543700 12.143600
121  2 -0.7846  9.622700  5.857020 18.043100
122  2 -0.7928  9.204430  5.657080  6.279040
123  2 -0.8159  9.229340  6.260660 12.028800
124  2 -0.8380  9.250340 11.581100 17.718600
125  2 -0.8363  9.164040 11.726600  5.347690
126  2 -0.7923  8.547150 12.002200 11.124800
127  2 -0.9258 15.116300 17.556400 17.844400
128  2 -0.8065 15.591600 17.626300  5.581920
129  2 -0.8133 14.866900 -0.309103 11.977600
130  2 -0.6636 15.646300  5.451490 17.776000
131  2 -0.7842 15.567000  5.475050  5.654250
132  2 -0.6960 14.909400  5.871250 11.757500
133  2 -0.7256 15.327000 11.300700 18.363000
134  2 -0.8932 15.015200 12.187100  5.449340
135  2 -0.7964 14.667600 12.294200 12.040300
136  2 -0.7132  3.579800  2.296390  2.160980
137  2 -0.7736  2.855590  2.800480  8.855750
138  2 -0.7444  3.641920  3.103070 14.978800
139  2 -0.7326  2.889790  9.125240  2.964030
140  2 -0.7199  2.676780  8.847990  9.190230
141  2 -0.7995  3.250740  8.578580 14.773200
142  2 -0.8863  3.697550 14.448200  2.755860
143  2 -0.8295  3.455670 14.673800  8.979550
144  2 -0.6929  3.512560 14.350800 15.339700
145  2 -0.8140  9.359000  2.590480  2.888560
146  2 -0.8009  9.513340  2.624070  9.066020
147  2 -0.7643  9.507570  2.688400 14.767600
148  2 -0.8464  9.309680  8.619670  2.734450
149  2 -0.7323  9.378630  8.462080  8.765190
150  2 -0.8779  9.222580  8.715530 14.669800
151  2 -0.7233  9.385760 14.986900  2.725110
152  2 -0.7831  9.060320 14.905400  8.689580
153  2 -0.7966  9.046760 14.653800 14.366400
154  2 -0.7466 16.067800  3.131150  2.348080
155  2 -0.7390 15.211400  2.940230  8.550720
156  2 -0.7065 15.833500  2.291860 14.690700
157  2 -0.7251 14.930100  8.792860  2.915150
158  2 -0.8992 14.808300  9.034980  8.527470
159  2 -0.8016 15.666900  9.347240 14.298700
160  2 -0.7963 14.895200 15.081800  2.655480
161  2 -0.6897 15.641500 14.931400  8.353460
162  2 -0.8489 15.143800 14.883200 14.892800
163  2 -0.7124  0.831745 -0.380822  2.745680
164  2 -0.8185  0.008756 17.396100  8.255770
165  2 -0.7215  0.130260 17.714400 14.743400
166  2 -0.7685  0.301522  5.842780  1.861030
167  2 -0.7296 18.347800  5.832870  8.376670
168  2 -0.8257  0.650151  5.654840 14.306200
169  2 -0.7131 18.509100 12.063600  2.346170
170  2 -0.7187 18.064900 11.732500  9.093210
171  2 -0.7513  0.770437 12.339600 15.969800
172  2 -0.8100  6.382210 17.760800  3.091640
173  2 -0.6662  6.342140 17.499100  9.022830
174  2 -0.9349  6.435790 17.491900 14.981100
175  2 -0.8096  6.379900  5.867770  2.964180
176  2 -0.8613  6.599290  5.719580  8.448690
177  2 -0.6925  6.179040  5.229090 15.193600
178  2 -0.7335  6.299750 11.907500  2.456490
179  2 -0.8317  5.738790 11.134100  8.853530
180  2 -0.7738  5.827670 11.241900 14.819600
181  2 -0.7319 12.119900 17.759700  2.483660
182  2 -0.8231 12.441200 18.279000  8.403540
183  2 -0.7380 11.811400 17.307100 14.694300
184  2 -0.7539 12.273100  5.765120  3.092740
185  2 -0.7238 12.226100  6.143120  8.974640
186  2 -0.7280 11.380800  5.363530 14.796300
187  2 -0.7886 11.917400 11.898000  2.681900
188  2 -0.7570 11.932100 12.267500  8.445180
189  2 -0.8397 12.662300 11.507600 14.799400
190  2 -0.7807  0.627280  2.415080 -0.985274
191  2 -0.7722  0.519195  2.254150  5.073250
192  2 -0.7282  0.632497  2.708040 11.724600
193  2 -0.7882  0.109590  8.287230 17.835900
194  2 -0.7042 18.218400  8.370690  5.679660
195  2 -0.8431 -0.021383  8.762720 11.593800
196  2 -0.6279 17.348000 14.471400 18.459400
197  2 -0.8106  0.368353 14.944500  5.389170
198  2 -0.8553 -0.580033 14.769800 11.692000
199  2 -0.8312  6.338830  2.792950 17.927600
200  2 -0.7828  6.435470  2.803380  5.792650
201  2 -0.8471  6.694230  2.803100 11.978200
202  2 -0.7421  6.344120  8.740920 18.167300
203  2 -0.8819  5.897200  8.315490  5.926180
204  2 -0.7853  6.122770  8.594490 11.633400
205  2 -0.6866  5.996330 14.613800 17.606000
206  2 -0.8085  6.135920 14.578500  5.672400
207  2 -0.8383  6.183000 14.533000 11.952200
208  2 -0.8263 12.824000  2.768380 18.145600
209  2 -0.6445 12.486000  3.267150  6.714910
210  2 -0.7281 12.762000  2.928930 11.978500
211  2 -0.8017 12.400600  8.281910 17.617300
212  2 -0.8528 12.114500  8.575880  5.620680
213  2 -0.7978 12.227800  8.774250 11.984200
214  2 -0.6313 11.788200 14.930900 18.499600
215  2 -0.8195 11.666900 14.891500  5.823750
216  2 -0.7758 11.645600 15.081000 11.627700

