Generated by pymatgen.io.lammps.data.LammpsData

216  atoms

  2  atom types

0.000000 18.096178  xlo xhi
0.000000 18.140645  ylo yhi
0.000000 18.233787  zlo zhi

Masses

1  208.9804
2   78.9600

Atoms

1    1  0.6565 17.967600  0.083374 18.581800
2    1  0.8237  0.344788 18.112600  6.030010
3    1  0.8412 18.194500  0.186349 11.703600
4    1  0.7595  0.227952  6.747330  1.130200
5    1  0.7554 18.330800  5.474200  6.298500
6    1  0.7467 17.986600  6.165650 11.924700
7    1  0.7577 17.794400 11.960300  0.937779
8    1  0.6768  0.304992 12.110400  6.641460
9    1  0.8057 18.384500 11.868400 12.306500
10   1  0.7287  5.715000 18.295100  0.213088
11   1  0.8614  6.364250 18.054600  6.012260
12   1  0.8322  6.137450 17.700400 11.924400
13   1  0.7465  6.901970  6.019590 18.463300
14   1  0.8545  6.493120  6.064600  6.058760
15   1  0.7473  6.142090  6.186040 12.254100
16   1  0.7828  5.961520 12.497800 18.487000
17   1  0.7223  7.022780 11.701600  6.555620
18   1  0.8412  6.025060 12.221000 12.376500
19   1  0.7386 11.988600 -0.331813 18.516600
20   1  0.7829 11.825400  0.609597  5.972430
21   1  0.7966 11.634000 -0.004023 12.518900
22   1  0.7744 12.334800  5.949540  0.262596
23   1  0.7160 12.872200  6.377400  7.136650
24   1  0.8390 12.133200  6.002050 12.527100
25   1  0.8184 11.597700 12.802500  0.601288
26   1  0.6728 12.508800 13.184500  6.283160
27   1  0.6972 12.114900 11.375900 12.841400
28   1  0.7216 18.217400  2.626970  3.602740
29   1  0.8437 17.755100  2.570680  9.170920
30   1  0.6585 17.913400  3.369190 14.909900
31   1  0.7627  0.588642  9.157670  3.117550
32   1  0.8089  0.513916  8.605590  8.698030
33   1  0.7474 17.939500  9.254690 15.040000
34   1  0.7993  0.359868 15.260800  2.469060
35   1  0.6984  0.058663 14.299900  9.142880
36   1  0.8365  0.273687 15.302900 15.267400
37   1  0.7889  6.501340  2.583780  2.917440
38   1  0.7945  6.105810  2.281330  8.718030
39   1  0.7352  5.137380  2.948630 14.336800
40   1  0.7384  6.321880  8.769290  3.122280
41   1  0.7634  6.903120  8.634290  9.330680
42   1  0.9074  5.554160  9.084640 15.567700
43   1  0.8869  6.395670 15.162000  2.994910
44   1  0.6863  6.131850 14.531500  9.057830
45   1  0.8180  6.100720 14.990900 14.909300
46   1  0.8138 12.649100  2.761940  3.509490
47   1  0.8466 12.204300  3.536410  9.436510
48   1  0.6843 11.248800  2.915020 15.078200
49   1  0.8742 12.898200  9.272210  3.112710
50   1  0.7129 12.337400  9.173290  9.994980
51   1  0.6983 11.819300  8.796660 15.718900
52   1  0.7664 12.347800 15.300100  3.933950
53   1  0.7534 11.918800 15.579800  9.499180
54   1  0.6709 12.383900 15.329000 15.712100
55   1  0.8565  3.198370 18.228000  3.399200
56   1  0.7913  2.806780 -0.687172  8.861040
57   1  0.6873  2.621970 18.105500 15.846200
58   1  0.7485  3.884260  5.396680  3.281340
59   1  0.8112  3.692300  5.985760  9.168560
60   1  0.6517  1.939790  5.561020 15.013400
61   1  0.7938  3.239310 12.377500  3.597300
62   1  0.8121  3.945560 11.347200  9.145480
63   1  0.8097  3.294670 12.343600 15.643800
64   1  0.6921  9.775070 18.045700  3.319380
65   1  0.8307  9.076480 -0.052790  9.090990
66   1  0.6773  9.336060 17.954500 15.452800
67   1  0.7761  9.390450  6.503550  3.125010
68   1  0.8353  9.359540  6.240570  9.200260
69   1  0.7956  8.908310  5.869980 15.275500
70   1  0.7873  9.369230 12.167300  3.357900
71   1  0.6935  9.996180 12.169200  9.146300
72   1  0.7546  9.847910 11.763800 15.154400
73   1  0.8293 15.542600 -0.087921  3.214250
74   1  0.7560 14.412500 -0.349425  9.593880
75   1  0.7771 15.131300  0.151449 15.969000
76   1  0.8497 14.865400  5.911510  3.291360
77   1  0.7548 15.101700  5.916940  9.593050
78   1  0.7547 14.587200  6.526370 15.109100
79   1  0.7519 15.599500 12.404500  3.769400
80   1  0.6362 15.344300 11.980200  9.017900
81   1  0.7608 15.388700 12.755900 16.034800
82   1  0.7541  2.293070  3.141210 18.037900
83   1  0.7527  2.719700  2.522130  5.979600
84   1  0.7854  2.762650  3.125950 11.526200
85   1  0.7650  2.858270  8.750640 17.903200
86   1  0.8786  3.315940  8.501820  6.392470
87   1  0.7802  3.207450  8.906820 12.360600
88   1  0.7706  3.652460 15.190300 18.785700
89   1  0.7751  3.637060 14.779500  6.232610
90   1  0.7252  3.310180 15.419700 12.465200
91   1  0.7514  9.061970  3.383330 17.932300
92   1  0.7449  9.323700  3.256520  6.109690
93   1  0.7726  9.673880  2.445390 11.851500
94   1  0.6664  9.163440  9.018660  0.121331
95   1  0.7295  9.556330  9.136990  6.238570
96   1  0.8043  9.133430  8.772180 12.424600
97   1  0.7757  9.081460 15.490200  0.388875
98   1  0.7833  9.373460 15.140200  6.154590
99   1  0.8365  8.865520 14.859600 11.971500
100  1  0.8921 14.913500  3.183990  0.406222
101  1  0.8558 15.236400  2.835190  6.147130
102  1  0.7413 14.958600  2.737160 11.805600
103  1  0.7466 15.159500  9.777950  0.035838
104  1  0.7086 16.095600  9.743340  5.997940
105  1  0.7692 15.241500  9.381190 11.973100
106  1  0.6182 14.789000 15.649900 18.038300
107  1  0.7790 15.716800 15.711700  6.644160
108  1  0.8052 14.716400 14.137600 12.150900
109  2 -0.8353  2.706190 -0.076486  0.425879
110  2 -0.8040  3.129950 17.782900  6.282240
111  2 -0.7352  2.686900 18.660700 11.447000
112  2 -0.7305  2.741670  5.780490 18.518800
113  2 -0.7650  3.837920  5.662320  6.152140
114  2 -0.8514  3.242720  6.061090 12.077400
115  2 -0.7275  3.305960 12.513600  0.472000
116  2 -0.6941  3.783620 11.349400  6.498410
117  2 -0.7133  3.359300 12.186500 12.618900
118  2 -0.7620  9.229200  0.471867  0.321323
119  2 -0.8504  9.258950 -0.082312  6.478010
120  2 -0.8122  8.912640 -0.118771 12.221500
121  2 -0.8865  9.686280  6.397270 18.525400
122  2 -0.7928  9.108020  5.953860  6.556560
123  2 -0.7664  9.153910  6.103860 12.271800
124  2 -0.7621  9.312190 12.501700 18.132200
125  2 -0.8742  9.639420 12.216400  6.350620
126  2 -0.7422  8.965850 12.264000 12.255100
127  2 -0.8649 14.916900  0.351337  0.352046
128  2 -0.6973 14.955800  0.431408  6.362760
129  2 -0.5679 14.739700 18.008100 12.335800
130  2 -0.7173 15.182500  6.004000  0.776515
131  2 -0.6424 15.817600  6.785630  6.092050
132  2 -0.7607 15.095000  6.378840 12.197200
133  2 -0.7863 15.122000 12.652700  0.725812
134  2 -0.8881 15.587600 12.926900  6.397280
135  2 -0.7352 14.847600 11.807700 13.337000
136  2 -0.7939  3.095350  2.590130  3.021220
137  2 -0.7107  3.144730  2.860300  8.824480
138  2 -0.8905  2.633380  2.960640 15.150600
139  2 -0.6700  3.460840  9.165240  3.783400
140  2 -0.8199  3.695310  8.477960  9.155880
141  2 -0.8272  3.023340  8.859970 15.237700
142  2 -0.7842  3.839220 15.089300  3.643870
143  2 -0.7477  2.850100 14.297800  9.200800
144  2 -0.7781  3.206290 14.908700 15.591200
145  2 -0.6798  9.425810  3.295490  2.776940
146  2 -0.7123  9.355800  3.087930  8.664870
147  2 -0.6968  8.215670  3.181450 14.695700
148  2 -0.7477 10.005800  9.464250  3.514570
149  2 -0.8758  9.640920  8.867200  9.321940
150  2 -0.7468  8.876660  9.303480 15.094700
151  2 -0.8305  8.939360 15.129300  3.208120
152  2 -0.8249  9.025500 15.224400  9.151000
153  2 -0.7076  8.949150 15.173600 15.414000
154  2 -0.8250 15.222100  2.898570  3.018070
155  2 -0.7999 15.037100  2.531130  8.755360
156  2 -0.6377 14.849500  3.041000 14.865100
157  2 -0.7312 15.343500  8.767240  2.930490
158  2 -0.7537 15.616800  8.994180  9.367010
159  2 -0.7030 14.847000  9.316370 15.588700
160  2 -0.6968 15.608000 15.503800  3.294180
161  2 -0.7809 15.142600 14.879700  9.525260
162  2 -0.7066 15.178700 15.738900 14.980300
163  2 -0.8688 18.583700 -0.217179  3.144620
164  2 -0.7371 18.028600 -0.136042  9.008740
165  2 -0.7158 17.923800 -0.203500 14.596600
166  2 -0.7171  0.354837  5.697760  3.756870
167  2 -0.8079 17.818000  6.321800  9.286890
168  2 -0.7641 17.413900  6.499460 15.147300
169  2 -0.8253  0.364769 12.703900  3.461660
170  2 -0.7813  0.820024 11.636000  9.291860
171  2 -0.6906  0.199563 12.466000 15.108500
172  2 -0.7914  6.123900 -0.137584  3.325210
173  2 -0.7512  5.955050 17.632600  8.715530
174  2 -0.6873  5.490550 18.101500 14.868400
175  2 -0.8727  6.746330  6.263310  3.104280
176  2 -0.7606  6.255140  5.668770  9.066580
177  2 -0.7072  6.352670  6.617040 15.220900
178  2 -0.7367  6.536540 12.063000  3.124530
179  2 -0.8135  6.494870 11.294800  9.527530
180  2 -0.6784  6.278070 12.165100 15.409500
181  2 -0.8132 12.580500  0.009334  3.446870
182  2 -0.7404 11.535600  0.885516  9.579220
183  2 -0.8388 12.138700  0.213865 15.188100
184  2 -0.6812 12.312800  6.414600  3.841340
185  2 -0.8877 12.256000  6.242940  9.712320
186  2 -0.8626 11.462300  5.673290 15.443400
187  2 -0.7169 12.377900 12.358200  3.235620
188  2 -0.7856 12.646800 12.836600 10.028100
189  2 -0.7499 12.729400 12.495800 15.636200
190  2 -0.7239 17.763300  3.105550 18.744400
191  2 -0.9464  0.021333  2.521030  6.757390
192  2 -0.8687  0.080785  3.019800 11.766200
193  2 -0.9307 18.270200  9.383450  0.696104
194  2 -0.8101  0.572188  8.985670  5.903600
195  2 -0.7720  0.194125  9.326360 12.195900
196  2 -0.7394  0.503353 14.677400 -0.235599
197  2 -0.6856  0.465475 15.384200  6.092690
198  2 -0.6417  0.534355 14.936100 12.429900
199  2 -0.7350  6.550910  3.555650  0.068646
200  2 -0.7313  6.046410  2.879020  5.437980
201  2 -0.6554  6.368650  2.102410 11.384500
202  2 -0.7754  5.421300  9.375230 -0.136631
203  2 -0.7356  6.321520  8.860450  6.193110
204  2 -0.6889  6.308800  9.194800 12.637500
205  2 -0.8402  6.381750 15.621700 18.439100
206  2 -0.7346  6.646120 15.347300  6.013420
207  2 -0.9301  6.215210 15.125500 12.256300
208  2 -0.7070 12.370500  2.856060 18.721600
209  2 -0.8473 12.831400  3.261900  6.146400
210  2 -0.8696 12.148500  3.133940 11.856200
211  2 -0.7588 12.206000  9.049080  0.139217
212  2 -0.6116 13.102400  9.567340  6.032060
213  2 -0.8823 12.199700  8.660960 12.495300
214  2 -0.8671 12.039200 15.281400  0.987190
215  2 -0.8264 12.360400 15.877300  6.575550
216  2 -0.6926 12.019400 15.395700 12.281800

