Generated by pymatgen.io.lammps.data.LammpsData

320  atoms

  2  atom types

0.000000 16.855303  xlo xhi
0.000000 22.994774  ylo yhi
0.000000 24.472453  zlo zhi

Masses

1  208.9804
2   78.9600

Atoms

1    1  0.8322  0.833057 11.138200 10.463300
2    1  0.8347  0.887181 11.238500 22.627300
3    1  0.8481  0.924502 22.773700 10.530500
4    1  0.8290  0.967642 22.668400 22.769900
5    1  0.8308  5.159930 11.204400 10.577800
6    1  0.8166  5.154320 11.327100 22.773400
7    1  0.8325  5.079960 22.821600 10.581800
8    1  0.8367  5.039390 22.769300 22.813300
9    1  0.8218  9.283930 11.208400 10.522300
10   1  0.8193  9.257760 11.257200 22.741300
11   1  0.8371  9.347340 22.764800 10.468100
12   1  0.8187  9.430160 22.757500 22.807200
13   1  0.8341 13.559100 11.152600 10.570900
14   1  0.8145 13.560700 11.307100 22.763500
15   1  0.8283 13.536800 22.781000 10.569900
16   1  0.8386 13.502800 22.774700 22.785100
17   1  0.8289  3.005040  0.431873  1.601610
18   1  0.8272  3.014890  0.411932 13.890800
19   1  0.8249  3.100090 11.962300  1.768430
20   1  0.8229  3.026800 11.964700 13.941000
21   1  0.8211  7.225820  0.389274  1.568060
22   1  0.8387  7.225100  0.427096 13.877500
23   1  0.8124  7.122980 11.924200  1.567090
24   1  0.8179  7.251450 11.880100 13.837400
25   1  0.8253 11.393600  0.387521  1.658210
26   1  0.8265 11.448700  0.434330 13.878200
27   1  0.8128 11.471800 11.999300  1.639810
28   1  0.8176 11.396400 11.937800 13.869200
29   1  0.8366 15.627500  0.449050  1.695040
30   1  0.8345 15.675900  0.451508 13.956000
31   1  0.8232 15.607000 11.995800  1.643920
32   1  0.8237 15.614800 11.953700 13.937900
33   1  0.8255  3.043630  5.497970  7.850310
34   1  0.8118  3.006230  5.467970 20.044100
35   1  0.8181  3.019620 17.029100  7.871600
36   1  0.8404  3.028350 17.013400 19.972800
37   1  0.8417  7.156970  5.529830  7.861210
38   1  0.8366  7.301770  5.520480 20.075400
39   1  0.8296  7.189950 16.971600  7.884220
40   1  0.8335  7.258890 16.976300 20.003700
41   1  0.8406 11.532800  5.473900  7.837820
42   1  0.8228 11.457600  5.491660 20.028000
43   1  0.8311 11.486200 17.033600  7.788540
44   1  0.8427 11.507300 17.022600 20.030500
45   1  0.8334 15.641800  5.569250  7.743660
46   1  0.8330 15.643400  5.522020 20.143200
47   1  0.8211 15.649600 17.010900  7.791730
48   1  0.8383 15.575400 16.951500 20.144400
49   1  0.8104  0.912389  6.238330  4.397030
50   1  0.8199  0.846228  6.187040 16.765000
51   1  0.8276  0.908579 17.748200  4.452430
52   1  0.8218  0.828938 17.599000 16.728700
53   1  0.8168  5.074040  6.171930  4.459970
54   1  0.8301  5.129110  6.190440 16.726700
55   1  0.8277  5.096510 17.749000  4.456820
56   1  0.8388  5.124820 17.618200 16.776500
57   1  0.8248  9.321740  6.233590  4.413480
58   1  0.8295  9.403020  6.163970 16.662600
59   1  0.8393  9.331500 17.684800  4.439590
60   1  0.8160  9.405510 17.677900 16.706100
61   1  0.8173 13.567700  6.143990  4.479360
62   1  0.8435 13.536700  6.173900 16.647400
63   1  0.8260 13.593400 17.696000  4.542120
64   1  0.8354 13.536600 17.656700 16.650500
65   1  0.8673  0.897788  2.038870  6.100440
66   1  0.8530  0.899681  2.027280 18.310500
67   1  0.8426  0.872293 13.565200  6.101670
68   1  0.8456  0.882162 13.483100 18.224200
69   1  0.8559  5.112240  2.092630  6.040490
70   1  0.8554  5.129950  2.009710 18.302100
71   1  0.8471  5.061570 13.582000  6.015520
72   1  0.8661  5.087380 13.438400 18.274700
73   1  0.8727  9.322320  2.029450  6.019460
74   1  0.8595  9.413280  2.011700 18.264400
75   1  0.8646  9.382720 13.517200  6.056550
76   1  0.8658  9.359280 13.554100 18.236700
77   1  0.8434 13.545400  2.078820  6.070250
78   1  0.8466 13.513900  2.013690 18.310900
79   1  0.8529 13.518500 13.537900  5.960560
80   1  0.8569 13.520200 13.522500 18.279600
81   1  0.8454  2.999600  9.728020  6.072600
82   1  0.8514  3.012870  9.730150 18.385400
83   1  0.8513  3.012720 21.243900  6.215340
84   1  0.8551  2.995070 21.233600 18.412400
85   1  0.8624  7.231110  9.745020  6.106110
86   1  0.8650  7.276180  9.754300 18.409000
87   1  0.8662  7.245020 21.242900  6.126950
88   1  0.8588  7.214420 21.252000 18.466100
89   1  0.8580 11.476100  9.734870  6.130580
90   1  0.8541 11.452800  9.749890 18.376200
91   1  0.8590 11.453600 21.277300  6.143010
92   1  0.8496 11.488500 21.201600 18.456600
93   1  0.8417 15.627800  9.663230  6.072040
94   1  0.8493 15.662500  9.709370 18.404200
95   1  0.8447 15.621000 21.234500  6.158150
96   1  0.8470 15.654300 21.163200 18.401900
97   1  0.8467  2.994560  7.733900 12.328700
98   1  0.8604  3.006880  7.819530  0.102586
99   1  0.8496  3.004250 19.314100 12.309500
100  1  0.8531  3.013040 19.300200  0.044692
101  1  0.8487  7.232620  7.787780 12.295700
102  1  0.8563  7.195320  7.802640  0.068742
103  1  0.8564  7.231820 19.240200 12.325400
104  1  0.8470  7.190620 19.293000  0.073381
105  1  0.8462 11.381400  7.744580 12.322700
106  1  0.8470 11.504400  7.773760  0.058428
107  1  0.8483 11.485100 19.283100 12.292500
108  1  0.8632 11.460200 19.303300  0.103937
109  1  0.8615 15.624000  7.717020 12.345300
110  1  0.8595 15.649200  7.800890  0.094093
111  1  0.8626 15.639700 19.226900 12.311300
112  1  0.8693 15.649200 19.244000  0.099270
113  1  0.8547  0.874034  3.974600 24.403100
114  1  0.8647  0.952818  3.957840 12.240200
115  1  0.8620  0.867871 15.550500 24.413300
116  1  0.8438  0.901905 15.433300 12.185500
117  1  0.8582  5.112040  3.972920 24.496800
118  1  0.8436  5.076780  4.008510 12.199300
119  1  0.8511  5.122320 15.494900 24.461500
120  1  0.8528  5.113640 15.513100 12.186600
121  1  0.8562  9.350720  3.988870 24.429100
122  1  0.8516  9.340940  3.950660 12.278200
123  1  0.8557  9.326440 15.517500 24.412600
124  1  0.8497  9.292160 15.436900 12.203600
125  1  0.8578 13.544300  3.927820 24.466400
126  1  0.8556 13.516900  4.003550 12.197900
127  1  0.8403 13.578400 15.479100 24.476000
128  1  0.8649 13.543000 15.521700 12.168800
129  2 -0.5091  0.863907  3.742960  8.492420
130  2 -0.5318  0.877384  3.672790 20.736800
131  2 -0.5182  0.880176 15.190100  8.608620
132  2 -0.5076  0.941429 15.202800 20.714200
133  2 -0.5210  5.108500  3.591220  8.556090
134  2 -0.5127  5.218530  3.726010 20.776000
135  2 -0.5171  5.141050 15.136900  8.574650
136  2 -0.5220  5.131700 15.254300 20.675500
137  2 -0.5081  9.278260  3.803540  8.442530
138  2 -0.5247  9.380030  3.660510 20.658800
139  2 -0.5194  9.389110 15.239000  8.461360
140  2 -0.5235  9.345520 15.239100 20.646600
141  2 -0.5202 13.618800  3.660030  8.551330
142  2 -0.5188 13.535000  3.735440 20.840000
143  2 -0.5084 13.562000 15.178700  8.484320
144  2 -0.5300 13.553400 15.214400 20.832500
145  2 -0.5396  3.016400  8.057650  3.676650
146  2 -0.5220  3.041960  8.012270 16.037000
147  2 -0.5222  3.015000 19.551700  3.752450
148  2 -0.5079  3.029630 19.500700 16.080800
149  2 -0.5282  7.158810  8.017900  3.758960
150  2 -0.5179  7.249600  7.950670 16.029900
151  2 -0.5336  7.299920 19.521600  3.855390
152  2 -0.5117  7.182450 19.514200 16.081500
153  2 -0.5236 11.479000  8.039570  3.749360
154  2 -0.5233 11.469800  8.034260 15.980800
155  2 -0.5288 11.475700 19.438500  3.856760
156  2 -0.5159 11.433600 19.572600 15.972600
157  2 -0.5442 15.635300  7.989450  3.673690
158  2 -0.5227 15.594300  7.964610 15.975300
159  2 -0.5335 15.629900 19.507800  3.790080
160  2 -0.5213 15.599500 19.482800 15.964200
161  2 -0.5097  2.997600  9.448190  9.831050
162  2 -0.4938  3.073720  9.404630 21.989400
163  2 -0.5391  2.985550 21.010400  9.891280
164  2 -0.5349  3.035030 20.901400 22.019900
165  2 -0.5298  7.217160  9.400830  9.841470
166  2 -0.5138  7.195450  9.368970 22.022100
167  2 -0.5142  7.199140 20.988200  9.936740
168  2 -0.5195  7.215170 21.005600 22.144500
169  2 -0.5204 11.411000  9.490150  9.788940
170  2 -0.5097 11.407100  9.476200 22.031900
171  2 -0.5285 11.557700 20.998900  9.797540
172  2 -0.5292 11.429500 20.929100 22.068200
173  2 -0.5231 15.607300  9.370640  9.794500
174  2 -0.5127 15.649700  9.413640 21.994200
175  2 -0.5233 15.668000 21.005800  9.936030
176  2 -0.5189 15.645600 20.966700 22.180600
177  2 -0.5257  0.885198  2.214830  2.309940
178  2 -0.5252  0.942591  2.290670 14.575600
179  2 -0.5164  0.945705 13.733600  2.313140
180  2 -0.5325  0.895557 13.803200 14.642400
181  2 -0.5283  5.122990  2.200660  2.327630
182  2 -0.5183  5.070440  2.281320 14.576200
183  2 -0.5374  5.150670 13.822400  2.397930
184  2 -0.5074  5.187630 13.800600 14.608600
185  2 -0.5370  9.299230  2.222750  2.224650
186  2 -0.5311  9.316030  2.242860 14.611800
187  2 -0.5195  9.249790 13.715500  2.289440
188  2 -0.5303  9.333250 13.823300 14.545600
189  2 -0.5227 13.446500  2.239290  2.397410
190  2 -0.5322 13.560900  2.254350 14.544900
191  2 -0.5399 13.517800 13.830100  2.457190
192  2 -0.5178 13.507900 13.796400 14.599000
193  2 -0.5336  0.843559 10.993700  4.651790
194  2 -0.5367  0.892989 10.930000 16.829600
195  2 -0.5223  0.900718 22.461200  4.718200
196  2 -0.5328  0.861146 22.452100 16.927800
197  2 -0.5404  5.136480 10.912600  4.676250
198  2 -0.5331  5.136230 10.916000 16.934300
199  2 -0.5239  5.108830 22.428600  4.734380
200  2 -0.5205  5.138040 22.418900 16.927100
201  2 -0.5332  9.396260 10.925600  4.732860
202  2 -0.5324  9.318380 10.965100 16.899500
203  2 -0.5412  9.394220 22.469100  4.723290
204  2 -0.5191  9.330870 22.442800 16.934800
205  2 -0.5371 13.534800 10.940400  4.640930
206  2 -0.5244 13.571900 10.989900 16.886100
207  2 -0.5361 13.513900 22.417600  4.663440
208  2 -0.5254 13.547900 22.429800 16.942700
209  2 -0.5132  2.958330  0.826147  7.638170
210  2 -0.5350  3.005640  0.819447 19.798300
211  2 -0.5104  2.970730 12.294600  7.583270
212  2 -0.5383  2.968650 12.327200 19.770400
213  2 -0.5155  7.304680  0.843603  7.524620
214  2 -0.5124  7.231610  0.852387 19.747100
215  2 -0.5093  7.266400 12.333600  7.505490
216  2 -0.5322  7.211390 12.325700 19.731400
217  2 -0.5274 11.329000  0.911650  7.560710
218  2 -0.5360 11.465600  0.840199 19.833400
219  2 -0.5076 11.421100 12.297800  7.574410
220  2 -0.5322 11.422700 12.342900 19.709900
221  2 -0.5168 15.703400  0.827247  7.588040
222  2 -0.5166 15.636500  0.795562 19.777800
223  2 -0.5070 15.632800 12.255800  7.550580
224  2 -0.5368 15.631600 12.288700 19.752400
225  2 -0.5377  3.008170  5.158530  1.406420
226  2 -0.5406  2.972660  5.192430 13.686700
227  2 -0.5335  3.029010 16.719700  1.402340
228  2 -0.5177  3.044690 16.710600 13.716500
229  2 -0.5337  7.212770  5.208240  1.437260
230  2 -0.5298  7.246190  5.199200 13.675800
231  2 -0.5285  7.223790 16.711200  1.459120
232  2 -0.5267  7.223100 16.692800 13.699100
233  2 -0.5321 11.440800  5.116030  1.414900
234  2 -0.5452 11.465000  5.179340 13.706100
235  2 -0.5287 11.424200 16.710700  1.417160
236  2 -0.5312 11.476600 16.701100 13.640100
237  2 -0.5438 15.685900  5.176310  1.356850
238  2 -0.5341 15.632600  5.218590 13.637900
239  2 -0.5519 15.698300 16.703400  1.408160
240  2 -0.5374 15.601600 16.655400 13.662500
241  2 -0.5199  0.876460  6.583680 10.844600
242  2 -0.5175  0.835963  6.538110 23.039100
243  2 -0.5296  0.919596 18.067900 10.857000
244  2 -0.5257  0.835271 18.091300 23.023800
245  2 -0.5282  5.093990  6.577980 10.709500
246  2 -0.5060  5.096780  6.613930 23.056800
247  2 -0.5354  5.140970 18.053300 10.811500
248  2 -0.5171  5.043080 18.108800 22.993700
249  2 -0.5223  9.265090  6.541170 10.839800
250  2 -0.5133  9.311330  6.510490 22.977500
251  2 -0.5223  9.311570 18.056000 10.816500
252  2 -0.5065  9.360780 18.039900 23.000000
253  2 -0.5226 13.539400  6.581220 10.780800
254  2 -0.5212 13.587100  6.584310 23.042000
255  2 -0.5357 13.568100 18.035500 10.812200
256  2 -0.5223 13.569200 18.118800 23.060800
257  2 -0.6236  0.927671  9.992570  0.747704
258  2 -0.6285  0.883571  9.946130 13.099000
259  2 -0.6342  0.892366 21.381900  0.905347
260  2 -0.6368  0.887183 21.475100 13.142700
261  2 -0.6504  5.089540  9.876200  0.904853
262  2 -0.6513  5.122720 10.017300 13.150400
263  2 -0.6531  5.107170 21.412000  0.926156
264  2 -0.6355  5.147430 21.481000 13.184600
265  2 -0.6321  9.320120  9.871530  0.810362
266  2 -0.6605  9.313140  9.894330 13.135000
267  2 -0.6474  9.388450 21.276400  0.937157
268  2 -0.6420  9.342610 21.552100 13.053900
269  2 -0.6465 13.586600  9.982180  0.860252
270  2 -0.6359 13.535300  9.931510 13.169600
271  2 -0.6396 13.533500 21.475200  0.873051
272  2 -0.6185 13.546900 21.397300 13.235600
273  2 -0.6405  2.966930  1.765920 11.328100
274  2 -0.6446  3.069230  1.710970 23.535400
275  2 -0.6049  3.039530 13.252800 11.322700
276  2 -0.6047  3.042410 13.231100 23.554000
277  2 -0.6227  7.183540  1.715710 11.304700
278  2 -0.6171  7.154980  1.660150 23.501500
279  2 -0.6304  7.224310 13.253500 11.235300
280  2 -0.6497  7.147720 13.272200 23.503300
281  2 -0.6357 11.442400  1.782870 11.292100
282  2 -0.6398 11.450700  1.783650 23.557100
283  2 -0.6068 11.460300 13.232300 11.274200
284  2 -0.6230 11.401200 13.270100 23.491700
285  2 -0.6128 15.674300  1.717070 11.338300
286  2 -0.6205 15.646200  1.624930 23.570700
287  2 -0.6166 15.602200 13.209500 11.315900
288  2 -0.6281 15.702800 13.307600 23.503500
289  2 -0.6485  3.026910  4.117920  5.305720
290  2 -0.6341  3.017830  4.168510 17.422400
291  2 -0.6555  3.028370 15.787300  5.300220
292  2 -0.6370  3.065610 15.666900 17.422700
293  2 -0.6290  7.188370  4.153670  5.234230
294  2 -0.6255  7.270780  4.194410 17.481800
295  2 -0.6138  7.217270 15.673300  5.211140
296  2 -0.6248  7.213800 15.608600 17.443500
297  2 -0.6404 11.410600  4.239460  5.247710
298  2 -0.6506 11.456700  4.229560 17.373300
299  2 -0.6403 11.412200 15.679000  5.214580
300  2 -0.6574 11.438900 15.782000 17.446800
301  2 -0.6507 15.641000  4.140150  5.241570
302  2 -0.6441 15.633900  4.261300 17.539300
303  2 -0.6549 15.605000 15.703700  5.251690
304  2 -0.6614 15.597600 15.751700 17.591900
305  2 -0.6389  0.934415  7.478460  6.990230
306  2 -0.6279  0.922719  7.563390 19.338600
307  2 -0.6423  0.910347 18.983200  7.011860
308  2 -0.6246  0.967693 18.952200 19.274300
309  2 -0.6282  5.138780  7.475720  7.033920
310  2 -0.6070  5.160870  7.542790 19.283000
311  2 -0.6240  5.203690 19.011600  7.074960
312  2 -0.6260  5.146960 19.002000 19.236100
313  2 -0.5960  9.299310  7.467910  7.067970
314  2 -0.6207  9.337870  7.534910 19.289600
315  2 -0.6016  9.282210 19.029900  7.077660
316  2 -0.6197  9.383650 18.995200 19.347200
317  2 -0.6520 13.489400  7.400400  7.058800
318  2 -0.6277 13.546300  7.484690 19.210600
319  2 -0.6350 13.468300 19.017600  7.122720
320  2 -0.6427 13.509000 18.966100 19.250600

