Generated by pymatgen.io.lammps.data.LammpsData

320  atoms

  2  atom types

0.000000 16.864293  xlo xhi
0.000000 23.165087  ylo yhi
0.000000 24.472453  zlo zhi

Masses

1  208.9804
2   78.9600

Atoms

1    1  0.7876  1.145250 11.568200 10.588500
2    1  0.7935  1.278960 11.848900 22.699800
3    1  0.7821  1.157290 22.665700 10.512900
4    1  0.8245  1.312840 22.891300 22.261400
5    1  0.8625  5.441830 11.264300 10.303300
6    1  0.8334  5.544190 11.806000 22.614800
7    1  0.8353  5.191820 22.878500 10.281000
8    1  0.8666  5.493110 23.123000 22.496900
9    1  0.8423  9.967850 11.497400 10.492600
10   1  0.8168  9.619770 11.757000 22.385400
11   1  0.8681  9.515150 22.542600 10.723200
12   1  0.8185  9.693250 23.062000 22.413100
13   1  0.8340 13.866100 11.392200 10.356500
14   1  0.8414 13.673800 11.400900 22.567000
15   1  0.8321 13.750400 23.120000 10.400300
16   1  0.8135 13.967500 23.489500 22.900900
17   1  0.8452  3.651800  0.790615  1.537490
18   1  0.8442  3.448810  0.546806 14.235000
19   1  0.8607  3.401020 12.446000  1.672230
20   1  0.8169  3.282810 11.954500 13.809900
21   1  0.8254  7.772580  0.444709  1.823050
22   1  0.8480  7.686400  0.492214 14.088400
23   1  0.8049  7.560640 12.270300  1.484990
24   1  0.8451  7.667390 12.254100 14.254200
25   1  0.8466 12.074500  0.915039  1.917440
26   1  0.8338 11.889500  0.395906 13.704800
27   1  0.8460 11.711800 11.849800  1.779730
28   1  0.8307 11.999500 12.348500 13.690800
29   1  0.8725 16.226300  0.666253  1.526290
30   1  0.7884 15.910600  0.415224 14.113500
31   1  0.8396 15.833300 12.215500  1.612020
32   1  0.8694 16.230200 12.213200 14.061900
33   1  0.8413  3.397970  5.622560  7.990410
34   1  0.8334  3.780910  5.658360 19.973100
35   1  0.8442  2.927690 17.066100  8.026030
36   1  0.8351  3.469770 17.348800 20.188400
37   1  0.8244  7.227800  5.598690  7.926890
38   1  0.8093  7.507390  5.991420 20.541600
39   1  0.7702  7.256860 17.407200  7.936660
40   1  0.8751  7.546450 17.362300 20.250700
41   1  0.8012 11.835300  5.537640  8.080020
42   1  0.8550 11.866400  5.473920 19.905500
43   1  0.8326 11.459400 17.160400  7.928310
44   1  0.7944 11.868000 17.249600 19.763100
45   1  0.8162 16.114800  5.905400  7.781650
46   1  0.7834 15.990700  5.250230 20.193600
47   1  0.8818 15.822000 17.322500  7.984800
48   1  0.7844 15.911900 16.886900 20.090400
49   1  0.7692  0.957387  6.287200  4.082940
50   1  0.8387  1.192220  6.587360 16.513100
51   1  0.8441  1.048280 17.812700  4.121660
52   1  0.8580  1.125940 17.768900 16.769000
53   1  0.8731  5.626580  6.057190  4.602290
54   1  0.8004  5.502430  6.393160 16.504500
55   1  0.8379  5.022620 18.290700  4.284760
56   1  0.7982  5.399440 18.028900 16.498500
57   1  0.8080  9.662840  6.548580  4.133610
58   1  0.8429  9.746410  6.202410 16.870800
59   1  0.7763  9.219920 17.977000  4.568760
60   1  0.8187  9.672310 17.668600 16.217500
61   1  0.8323 13.859200  6.351750  4.382550
62   1  0.8323 14.137900  6.552030 16.642500
63   1  0.8356 13.805600 18.036700  4.022320
64   1  0.7905 13.920100 18.034700 16.926000
65   1  0.8252  1.134270  2.336650  6.414270
66   1  0.8491  1.363050  2.150980 18.074100
67   1  0.8270  0.831744 13.401100  5.845540
68   1  0.7766  1.106390 13.794800 18.536700
69   1  0.8466  5.078010  1.917890  6.160190
70   1  0.8081  5.256500  2.294100 17.577100
71   1  0.8664  5.357680 13.865900  6.030590
72   1  0.8261  5.363040 13.935400 17.881700
73   1  0.8519  9.364850  2.358580  6.025960
74   1  0.8321  9.792840  2.435860 17.989400
75   1  0.8370  9.380750 14.246100  5.750090
76   1  0.8146  9.775780 13.679600 18.141200
77   1  0.8184 14.094500  2.151790  5.963010
78   1  0.8129 13.861900  1.821020 18.091700
79   1  0.8733 13.558900 13.865400  5.792570
80   1  0.8037 13.840900 13.894800 18.353200
81   1  0.8533  3.564720 10.188000  5.993910
82   1  0.8929  3.417040  9.475170 18.779700
83   1  0.8344  3.145810 21.722800  6.430820
84   1  0.8154  3.304600 21.359000 18.506700
85   1  0.8604  7.708060  9.615520  6.257300
86   1  0.8034  7.760430  9.682800 18.651700
87   1  0.8385  7.288520 21.222700  6.315020
88   1  0.8132  7.344820 21.741600 18.379500
89   1  0.8512 11.896400  9.976530  6.284710
90   1  0.8696 11.821000  9.801980 18.811400
91   1  0.8008 11.613500 21.627900  6.343590
92   1  0.7818 11.397600 21.255300 18.846000
93   1  0.8259 15.817300  9.721480  6.415440
94   1  0.8198 16.220000  9.889180 18.969800
95   1  0.8295 15.369500 21.361500  6.495930
96   1  0.7977 16.041900 21.329100 18.452500
97   1  0.8254  3.976850  7.872150 12.310000
98   1  0.8277  3.494770  7.713790  0.549564
99   1  0.8199  3.172200 19.616600 12.086300
100  1  0.8577  3.008830 19.381700 -0.188019
101  1  0.8227  8.060540  7.978750 12.023000
102  1  0.8048  7.653910  8.014740  0.334596
103  1  0.8792  7.597490 19.577500 12.585700
104  1  0.8566  7.692860 19.945900  0.176389
105  1  0.8211 11.873900  8.408230 12.294800
106  1  0.8718 11.789100  8.053300  0.066101
107  1  0.8524 11.855500 19.646100 12.100100
108  1  0.8379 11.652300 19.810100  0.197816
109  1  0.8523 16.297600  7.954690 12.862200
110  1  0.8273 16.032100  7.848570 -0.223121
111  1  0.8383 16.096200 19.252300 12.137300
112  1  0.8502 15.790300 19.710700  0.428658
113  1  0.8189  1.212180  4.033570 24.326200
114  1  0.8352  1.481640  4.391750 11.972200
115  1  0.8400  0.820075 15.540800 24.250600
116  1  0.8239  1.465440 15.418600 11.831900
117  1  0.8210  5.554080  4.244360 23.970600
118  1  0.8726  6.035230  3.842090 11.973500
119  1  0.8509  5.137260 15.850200 24.164400
120  1  0.8260  5.890180 15.826300 12.051700
121  1  0.8340  9.723440  4.120880 24.176300
122  1  0.8466  9.879170  3.758670 12.120600
123  1  0.8357  9.847190 15.857700 24.201200
124  1  0.8068  9.695880 15.357900 11.891600
125  1  0.8112 13.948100  4.384820 23.952100
126  1  0.8362 14.410800  4.156580 11.930400
127  1  0.8540 13.842600 15.835100 24.532700
128  1  0.8254 13.750000 15.681700 12.017800
129  2 -0.5862  1.116630  4.029220  8.579600
130  2 -0.4905  1.430400  3.556480 20.656600
131  2 -0.5077  0.924387 15.088400  8.397320
132  2 -0.6099  1.575320 15.622700 20.880300
133  2 -0.5310  5.371410  3.841780  8.888890
134  2 -0.5339  5.711310  3.855540 20.707700
135  2 -0.5175  5.318070 15.333100  8.610140
136  2 -0.5672  5.640290 15.753400 20.645500
137  2 -0.4835  9.551570  3.723640  8.608370
138  2 -0.5079  9.924240  3.979780 20.867900
139  2 -0.5613  9.597330 15.268500  8.394640
140  2 -0.4827  9.893960 15.447400 20.782400
141  2 -0.5134 14.259600  4.017200  9.061190
142  2 -0.5800 13.727100  3.687050 20.845300
143  2 -0.4637 13.841600 15.198000  8.492230
144  2 -0.5078 13.450200 15.365700 21.019700
145  2 -0.4778  3.666140  8.073800  3.795270
146  2 -0.5479  3.360230  8.394450 16.287100
147  2 -0.4933  3.016650 19.802700  3.483530
148  2 -0.5021  3.140310 19.825400 16.101500
149  2 -0.5574  7.530540  8.221330  3.782700
150  2 -0.4641  7.853990  8.155780 15.759600
151  2 -0.5420  7.340420 19.982900  3.732080
152  2 -0.4721  7.728850 20.039700 15.776200
153  2 -0.4884 11.749600  8.457720  3.437670
154  2 -0.4563 11.834500  8.148350 16.080200
155  2 -0.4666 11.417300 20.121700  3.608640
156  2 -0.4229 11.745400 19.837300 15.581000
157  2 -0.4930 15.855300  8.290630  3.328050
158  2 -0.5501 15.926700  8.362980 15.870400
159  2 -0.5082 15.969300 19.901400  3.868300
160  2 -0.5085 16.168500 19.542200 15.864400
161  2 -0.5138  3.495500  9.607950  9.611700
162  2 -0.4212  3.338910  9.553100 22.088300
163  2 -0.5526  2.977580 20.683100  9.448420
164  2 -0.5320  3.556960 21.164800 21.972700
165  2 -0.5417  7.833090  9.774870  9.669870
166  2 -0.5232  7.342010  9.882210 21.986000
167  2 -0.5194  7.357790 20.908000 10.014000
168  2 -0.5390  7.440120 21.269200 21.962400
169  2 -0.5698 11.877500  9.658410  9.429370
170  2 -0.5222 11.609800  9.685580 21.847300
171  2 -0.5941 11.797000 21.335300  9.675630
172  2 -0.5295 11.960600 21.479000 22.224500
173  2 -0.4971 15.916300  9.567430  9.952300
174  2 -0.5597 15.925600  9.642570 22.227800
175  2 -0.5469 15.841400 21.078900  9.565510
176  2 -0.4460 15.738800 21.243400 22.218600
177  2 -0.5358  1.563840  2.239790  2.245490
178  2 -0.4769  1.682980  2.621460 14.518700
179  2 -0.5332  1.082200 14.112600  2.400870
180  2 -0.4684  1.290200 13.986100 14.677400
181  2 -0.4618  5.771340  2.586280  2.404420
182  2 -0.5540  5.665390  2.342470 14.325700
183  2 -0.5129  5.250380 14.242400  2.232380
184  2 -0.5168  5.331520 13.823100 14.681200
185  2 -0.5230  9.656300  2.205480  2.407510
186  2 -0.5396  9.863040  2.391670 14.645300
187  2 -0.5324  9.812610 13.797000  2.376230
188  2 -0.5363  9.831360 14.146100 14.574300
189  2 -0.4759 14.191700  2.566300  2.408850
190  2 -0.5314 13.956800  2.246290 14.672900
191  2 -0.5134 13.740600 14.162400  2.605740
192  2 -0.4886 14.012900 14.140900 14.479600
193  2 -0.5032  1.170660 11.005200  4.488890
194  2 -0.4828  1.109410 11.048400 17.124200
195  2 -0.4241  0.874447 22.745000  4.858600
196  2 -0.5665  1.489780 22.839000 16.730900
197  2 -0.5176  5.559100 11.645300  4.461010
198  2 -0.4611  5.540880 10.932700 17.143600
199  2 -0.5875  5.073470 22.757400  4.798400
200  2 -0.5620  5.215390 22.866300 16.394100
201  2 -0.4547  9.805170 11.041900  4.796230
202  2 -0.5056  9.902420 11.090400 16.885700
203  2 -0.4699  9.325130 22.706100  4.649080
204  2 -0.5351  9.673800 22.715100 17.071500
205  2 -0.5364 13.972000 11.104900  4.772800
206  2 -0.4737 13.942600 10.934600 17.366000
207  2 -0.5313 13.836800 22.792800  4.508280
208  2 -0.5327 13.789600 22.333200 17.089800
209  2 -0.6198  3.246300  0.889045  7.925450
210  2 -0.5335  3.481500  0.834998 19.681000
211  2 -0.5484  3.209240 12.447500  7.400440
212  2 -0.5160  3.559270 12.252100 19.767700
213  2 -0.4739  7.205670  0.782385  7.828880
214  2 -0.4789  7.736760  1.224560 19.599300
215  2 -0.4557  7.584310 12.473500  7.385770
216  2 -0.4969  7.689990 12.718200 19.792700
217  2 -0.4861 11.334500  1.103400  7.722320
218  2 -0.4773 11.694500  1.151130 20.020400
219  2 -0.4666 11.348100 12.616600  7.269500
220  2 -0.5477 11.819100 12.436600 19.965700
221  2 -0.5589 15.852700  0.983332  7.569600
222  2 -0.5668 16.057200  0.885327 19.591100
223  2 -0.5341 15.545600 12.394100  7.378030
224  2 -0.5914 15.843400 12.771900 20.155300
225  2 -0.5690  3.856430  5.306300  1.374050
226  2 -0.5124  3.757740  5.505560 13.650400
227  2 -0.5436  3.036140 16.971900  1.213730
228  2 -0.4592  3.566560 16.653600 13.539800
229  2 -0.5255  7.676790  5.179470  1.500840
230  2 -0.5010  8.001480  5.192380 13.552100
231  2 -0.4782  7.482280 17.359700  1.358330
232  2 -0.5603  7.745650 17.042400 13.992100
233  2 -0.5006 11.805100  5.396560  1.537830
234  2 -0.4375 11.809900  5.462940 13.467500
235  2 -0.5340 11.631900 16.952100  1.640390
236  2 -0.5100 11.713500 16.988500 13.384500
237  2 -0.5718 15.990500  5.135170  1.302130
238  2 -0.5631 16.274600  5.262130 13.771500
239  2 -0.6114 15.681400 17.084700  1.723930
240  2 -0.4506 16.353800 16.890800 13.519100
241  2 -0.5416  1.474400  6.849200 10.985200
242  2 -0.5433  1.183490  6.641400 22.836100
243  2 -0.5656  1.098900 18.027000 10.240500
244  2 -0.4894  0.589248 18.438700 23.036100
245  2 -0.5844  5.756970  6.519840 10.808700
246  2 -0.5489  5.441500  6.866010 22.999600
247  2 -0.5578  5.318400 18.264800 11.006200
248  2 -0.5004  5.299040 18.335400 22.905500
249  2 -0.5198 10.020100  6.712910 10.481600
250  2 -0.5422  9.688800  7.011380 23.098200
251  2 -0.5410  9.456600 18.180100 10.699200
252  2 -0.5126  9.720160 18.553400 23.088600
253  2 -0.4822 14.149600  6.926150 11.049800
254  2 -0.5629 13.630800  6.958580 22.880800
255  2 -0.5605 13.999100 18.407400 10.510300
256  2 -0.4464 13.890700 18.271000 23.072900
257  2 -0.5487  1.243840 10.516500  0.911383
258  2 -0.6826  1.079530 10.318200 13.247200
259  2 -0.5809  1.211310 21.690300  0.574633
260  2 -0.6334  1.249960 21.253900 13.106200
261  2 -0.5901  5.224160 10.415900  0.821651
262  2 -0.6224  5.633780 10.100000 12.836200
263  2 -0.6092  5.420030 21.733400  0.537678
264  2 -0.5844  5.810650 21.715700 13.099600
265  2 -0.6345  9.665950 10.113000  0.892694
266  2 -0.6160  9.750410 10.217100 13.209300
267  2 -0.6434  9.792680 21.780700  0.808590
268  2 -0.6405  9.777440 21.427900 13.158800
269  2 -0.6124 13.741600 10.195600  0.767120
270  2 -0.6532 13.943700 10.389500 12.872100
271  2 -0.6247 14.016500 21.994500  1.062650
272  2 -0.6408 13.849700 21.785600 13.025300
273  2 -0.5594  3.647750  1.581000 11.387000
274  2 -0.6034  3.434990  1.705750 23.415900
275  2 -0.6120  3.756920 13.293400 11.223900
276  2 -0.6802  3.076560 13.768700 23.642700
277  2 -0.5988  7.609790  1.404820 11.478300
278  2 -0.5858  7.604040  1.854040 23.285700
279  2 -0.6227  7.780370 13.158500 11.681600
280  2 -0.6458  7.461970 13.530300 23.429800
281  2 -0.6400 11.517600  1.527720 11.264600
282  2 -0.6230 11.804100  2.152300 23.803400
283  2 -0.7375 11.854100 13.280400 11.204100
284  2 -0.5845 11.657900 13.521000 23.684900
285  2 -0.5983 15.873100  1.592380 11.211000
286  2 -0.6716 16.397200  1.969880 23.665100
287  2 -0.6444 16.203500 13.534900 11.465300
288  2 -0.6655 15.791700 13.648200 23.730900
289  2 -0.6372  3.508700  4.521670  5.505390
290  2 -0.6217  3.270870  4.490680 17.321500
291  2 -0.5726  3.200320 15.979600  5.387410
292  2 -0.6130  3.247390 16.052000 17.264600
293  2 -0.6465  7.243090  3.963050  5.646190
294  2 -0.6345  7.588240  4.429960 17.366000
295  2 -0.6552  6.983770 16.045300  5.174280
296  2 -0.6103  7.709340 15.864800 17.526700
297  2 -0.5973 11.964400  4.428410  5.209810
298  2 -0.6311 11.964400  4.378720 17.279400
299  2 -0.6265 11.568400 16.167900  5.425710
300  2 -0.6531 11.964700 15.991100 17.110900
301  2 -0.6535 15.872700  4.304820  5.271400
302  2 -0.6041 16.310100  4.393320 17.399100
303  2 -0.5672 15.677400 16.145200  5.410790
304  2 -0.6664 15.790200 15.856700 17.336600
305  2 -0.5717  1.398690  7.841960  6.724390
306  2 -0.6201  1.331140  7.647460 19.154400
307  2 -0.5302  0.988517 19.032700  6.878090
308  2 -0.6326  1.314500 19.001500 19.436800
309  2 -0.6333  5.448810  7.573400  6.889230
310  2 -0.6922  5.469390  7.600630 19.336800
311  2 -0.6446  5.295500 19.290300  6.983480
312  2 -0.6341  5.549430 19.506700 19.065500
313  2 -0.6312  9.429150  7.478030  6.659870
314  2 -0.6633  9.717860  7.541110 19.322000
315  2 -0.6259  9.545510 19.529400  7.120070
316  2 -0.6272  9.526860 19.028100 19.471000
317  2 -0.6893 13.950700  7.521750  6.809680
318  2 -0.6186 13.725200  7.488810 19.302300
319  2 -0.5893 13.610200 18.823500  6.796970
320  2 -0.6373 14.046900 19.125000 19.543800

