Generated by pymatgen.io.lammps.data.LammpsData

360  atoms

  2  atom types

0.000000 16.677463  xlo xhi
0.000000 21.699897  ylo yhi
0.000000 28.493178  zlo zhi

Masses

1  208.9804
2   78.9600

Atoms

1    1  0.5852 13.430600 12.133100 23.117900
2    1  0.7593  2.904560 17.809400 25.197200
3    1  0.6804  1.524060  4.652960 17.462400
4    1  0.8394  5.433290 13.364200 12.346100
5    1  0.8856  5.574910  5.758470  4.515220
6    1  0.6794 10.052300 17.218800 27.173300
7    1  0.7195 12.485200 19.730000 21.876200
8    1  0.8778  2.137880  7.447360 27.651700
9    1  0.7153  9.843490  3.248330 15.812400
10   1  0.7642  5.121340  4.703720 15.620200
11   1  0.8636  9.259310 11.889700 27.076300
12   1  0.9039  1.345140 20.965100  0.743949
13   1  0.7131 11.438900  8.531950 28.331700
14   1  0.7561  0.622267  1.882330 22.743200
15   1  0.8108  4.879490  0.615802 19.017000
16   1  0.7488 12.325300  3.904710 20.641900
17   1  0.6966 14.102200  9.545210 25.151200
18   1  0.8428  1.554330  3.562260 27.240800
19   1  0.7672  6.900570 13.550800 17.786800
20   1  0.7698  8.872930  1.043060 19.518900
21   1  0.8572  0.150957  7.429470  3.015350
22   1  0.7513  9.353610  6.155830 22.771800
23   1  0.6499  8.575730 16.652700 19.079300
24   1  0.6619  2.028090  6.130400  6.071880
25   1  0.8399  1.335220  9.759130 20.149100
26   1  0.8668  5.238040 21.507300 24.485200
27   1  0.7405  2.438790 10.979700 23.861100
28   1  0.8818  0.269612  7.132880 24.041500
29   1  0.7746 16.433800 15.596400 25.086200
30   1  0.6158  5.384660 19.247200  1.308790
31   1  0.8284  2.585790 14.847200 21.126200
32   1  0.7984  5.444470  9.457500 22.078300
33   1  0.7521  5.724940 12.863600 22.823000
34   1  0.8056  5.776370  9.667070 26.878700
35   1  0.7749  6.552110 16.068300  1.081280
36   1  0.5453 12.228700 16.405500 22.502200
37   1  0.8194  9.847090  1.899830 24.536000
38   1  0.3925  7.043590  4.578430 27.416000
39   1  0.5559 10.062400  5.207000 26.464600
40   1  0.7620  8.158720  4.497570 20.106400
41   1  0.5308 11.106300 13.737100 24.118600
42   1  0.6802 13.264400 13.800900 27.310000
43   1  0.7316  6.805710 17.487600 24.789700
44   1  0.8279 14.605500 20.933800 25.737700
45   1  0.8450 15.834000 16.923200  1.594480
46   1  0.7410 13.801000  7.659400 21.262200
47   1  0.8351  4.504390  2.341530  3.641450
48   1  0.5755  6.116470  6.716930 24.983900
49   1  0.7172  0.122104 11.914900  3.220810
50   1  0.7927  6.595280  0.099141 10.972800
51   1  0.8760  3.982740  9.350470  4.040630
52   1  0.7749  0.709315 13.556100 28.050000
53   1  0.6855  4.724770 17.661700  7.461320
54   1  0.7816 10.843200 16.273700  4.574480
55   1  0.7348  7.975080  2.381740  1.041800
56   1  0.7155  3.229930  3.330810 12.275800
57   1  0.6696  4.496260  4.438310  0.506776
58   1  0.8407 15.543700  9.924260  6.831010
59   1  0.7138 15.737400 10.233900 28.302800
60   1  0.7783 13.484200 17.799700  5.498250
61   1  0.8947 11.390600 18.907400  1.803730
62   1  0.8593  6.769540  2.311690  5.980270
63   1  0.8619 13.614900  3.794850 25.012000
64   1  0.7019 13.700100 14.123500  3.476550
65   1  0.8521  0.064078  3.422030  2.205950
66   1  0.7836  4.361940 15.355900 15.333700
67   1  0.6304 13.013000 17.304600 26.341400
68   1  0.7617 10.741600  4.133590  3.732390
69   1  0.8508  3.697280 14.580900  4.671530
70   1  0.6020  3.002680 18.899700  3.348910
71   1  0.5702 10.969000 21.360300 12.767400
72   1  0.8140 10.053800  7.887820  3.999730
73   1  0.6944 16.462800 18.321700  7.518840
74   1  0.7406 12.118100  1.965430 17.380100
75   1  0.9397  6.777320  8.301210  7.683680
76   1  0.6740 13.614400 10.633400 20.414600
77   1  0.7565  2.434570 15.225200  8.690260
78   1  0.8213 15.955600 14.380200  6.616210
79   1  0.7373  8.024170 18.946900  3.698390
80   1  0.7149 12.091700  8.210980  7.036040
81   1  0.7657  9.415080 10.751100  8.563760
82   1  0.8257  1.499140 12.563800 12.946600
83   1  0.4994 11.709900  5.164780 12.690800
84   1  0.7426 11.517500  2.058610  0.895746
85   1  0.7578  1.852900  6.787960 14.580300
86   1  0.8081 11.329600  0.424398  4.708400
87   1  0.8064  9.780910  4.623710  7.037030
88   1  0.8254 13.625900  9.232120 10.373400
89   1  0.8981 11.897900 12.224800  6.199270
90   1  0.7062 13.215000 20.326500  9.613130
91   1  0.6704  4.743680 20.766700  5.985170
92   1  0.8406  9.147100 21.176400 27.201900
93   1  0.7669 12.639500 10.683400  2.995890
94   1  0.7888  1.595270 11.563700  7.928540
95   1  0.8287  6.121000 18.370900 12.034400
96   1  0.7705 13.732400 16.096100  9.642630
97   1  0.7145 14.318900  1.893790  7.816590
98   1  0.8418  0.078837 20.898700  5.064040
99   1  0.6465 13.864800  3.886240 15.293100
100  1  0.8282 15.383800  8.326020 13.259000
101  1  0.8133 15.889400 10.949800 15.758200
102  1  0.8139  6.443290  0.875187 14.824800
103  1  0.7087  3.697860 19.985700  9.535950
104  1  0.7242 15.436000  4.894260  6.862250
105  1  0.7942  0.003224  1.820020 10.959100
106  1  0.8242  3.479700  9.991510 15.983600
107  1  0.6966  9.087670 13.700600 20.958700
108  1  0.7028 11.539500 13.179600 11.563400
109  1  0.7998  1.871600  1.023260  8.562170
110  1  0.7764  4.122780  5.532640  9.393250
111  1  0.7594  5.424470  6.704140 13.056100
112  1  0.8383  8.321140 15.424500  8.230650
113  1  0.7074 10.960100 18.155800 11.084900
114  1  0.5869  9.120860 18.524100 21.885600
115  1  0.5398 13.054400  2.312880 12.945800
116  1  0.8126  0.791654  5.928440 10.539700
117  1  0.8613  9.218930 19.110400  7.938690
118  1  0.8399 10.215300  6.906700 17.902800
119  1  0.7763 11.519600  8.402410 13.827700
120  1  0.7607  7.767450  8.662110 11.706000
121  1  0.8703 16.071400 19.442000 22.367300
122  1  0.8750  2.966280  9.783760 11.227100
123  1  0.7706 15.481400  7.733790 17.236900
124  1  0.7998 14.144600 14.251800 13.713700
125  1  0.6684  4.022920 12.956600 18.387300
126  1  0.7896  8.008310 19.389300 15.569700
127  1  0.7470 11.414100 19.712000 17.739000
128  1  0.7297  8.259620  4.597000 11.242400
129  1  0.8829  3.210000  5.447740 20.577500
130  1  0.7003  5.593710 17.070400 21.598900
131  1  0.7686  5.985020 14.253700 26.354000
132  1  0.9327 15.628400 13.984900 19.222200
133  1  0.8553  2.920470 20.049800 21.797100
134  1  0.7262  9.364500  1.222250 10.142900
135  1  0.7757 11.656600 10.940100 16.356800
136  1  0.7893  7.415380 10.392700 14.862600
137  1  0.8240  9.811960 15.751400 13.448900
138  1  0.8541  9.177490 10.477200 19.150100
139  1  0.7426  4.874520 17.877800 18.078200
140  1  0.7896  4.307620  3.548560 23.858900
141  1  0.7322 15.308000  2.820570 19.638400
142  1  0.8642  6.385910  8.223830 17.141000
143  1  0.8815 11.864100 14.437900 17.529800
144  1  0.7303 12.689600  6.087140  9.140970
145  2 -0.7230  5.185140 19.029500 23.205600
146  2 -0.6323 16.100700 16.663000  4.731970
147  2 -0.4097 12.467300  1.863450 23.009800
148  2 -0.4321  4.072150 12.293700 27.489200
149  2 -0.3129  7.035840  1.292980 22.631900
150  2 -0.3945  0.687581 18.668400 27.545700
151  2 -0.3686  3.915920 20.547100 27.144900
152  2 -0.6145 11.410500  5.204650 23.957200
153  2 -0.7497 14.431400 11.793300  5.144060
154  2 -0.6455 15.491600 12.948200 25.933700
155  2 -0.3030  7.273290 12.340500  0.057095
156  2 -0.4782  8.664560 20.011100 24.383300
157  2 -0.6547  6.289490  7.100460 10.035000
158  2 -0.5297 14.045600  8.642230  1.213600
159  2 -0.5252 14.986200  4.514030 21.873000
160  2 -0.1895  6.779740 10.199400  5.785740
161  2 -0.5146 14.837700 14.689100 22.758800
162  2 -0.4992 14.398800  6.817780 24.593500
163  2 -0.4588 12.237200 20.141100 24.664600
164  2 -0.5575  8.049990  6.626680  5.247280
165  2 -0.2785 10.822900  9.246590 22.430400
166  2 -0.6871  4.183880 15.427800 23.263600
167  2 -0.3116 14.512700 19.063800  0.218167
168  2 -0.6622  2.309780  3.807130  8.626940
169  2 -0.6204  9.294640 17.032800  2.318820
170  2 -0.4225  0.590086  0.431604 26.890900
171  2 -0.4541  1.247130 12.304400 17.633200
172  2 -0.3679 13.203500 20.474700  2.769440
173  2 -0.4679  2.252570  3.636110  4.213650
174  2 -0.6934 14.359500 17.672600 24.166700
175  2 -0.6639  3.128610  5.311540 26.241200
176  2 -0.5191  0.217149 12.764000 20.748200
177  2 -0.2582 12.466800  6.012060  2.385450
178  2 -0.5922  3.224810  6.496720  3.408940
179  2 -0.5394  4.027380  2.001070 25.833400
180  2 -0.5350  3.143070  2.029170  0.871074
181  2 -0.4429 10.825300 13.871000  0.263543
182  2 -0.4626 15.277800  5.635590  3.877930
183  2 -0.5919  7.094320 12.176700 25.202300
184  2 -0.8288 15.064000 12.606600  1.012000
185  2 -0.3273  5.885290 14.726200  6.091830
186  2 -0.4051  0.827335  1.788390  6.100050
187  2 -0.6795  6.100210 21.594500  4.000280
188  2 -0.7044 15.020900 15.908400 27.915100
189  2 -0.7353  9.942580  4.047120  1.312070
190  2 -0.6584  8.109710  3.657870 23.583900
191  2 -0.8049 10.230700  3.313170 18.826700
192  2 -0.6692 12.964500 16.724000  2.695680
193  2 -0.0214 15.458600 20.779300 17.830200
194  2 -0.4621  7.352670  8.910230 23.968100
195  2 -0.4622  7.529670  8.360460 19.816500
196  2 -0.6319  3.904580  8.419740 25.486300
197  2 -0.5343  2.431680  0.058472  3.536920
198  2 -0.4337  7.757800 13.381200 14.665900
199  2 -0.4934 12.848100  1.574340 26.337800
200  2 -0.5088  2.144360  5.339510 22.921400
201  2 -0.4576  2.359040  3.019260 15.328400
202  2 -0.5182 16.450100  3.891800 25.218700
203  2 -0.8466  9.081560 15.917000 23.103700
204  2 -0.6632  5.278960 17.077500 26.893300
205  2 -0.5657  5.671890 19.835000 20.194500
206  2 -0.3713  5.040250  2.991810 21.369200
207  2 -0.5954  9.299850  0.061468 16.324300
208  2 -0.5657  5.223870 20.738400 13.154300
209  2 -0.4808  8.418170  8.828020 27.659800
210  2 -0.6417  8.792610 15.145400 26.610500
211  2 -0.6397  3.279240 15.795600 18.888600
212  2 -0.5812  1.121420 19.777400 24.238300
213  2 -0.6333 11.480100  6.385240 20.399700
214  2 -0.5270  5.677540 20.736200 16.411200
215  2 -0.6987  6.776910  4.004290  3.027720
216  2 -0.4555  1.791200  2.506150 19.888800
217  2 -0.5496 14.165000 12.849100 16.881800
218  2 -0.4314 11.019700 13.195700  3.599480
219  2  0.0650  7.311820 11.920800  3.186290
220  2 -0.6268 14.401300  6.405030 11.652000
221  2 -0.4496  1.966320 17.488600 10.020600
222  2 -0.4905  4.960710 16.052300  9.672590
223  2 -0.6749  0.724281  9.589730  4.667170
224  2 -0.5896 14.070300 20.210900  6.425820
225  2 -0.5785  4.633180  7.858120  6.045590
226  2 -0.4503  8.655320 13.269800 10.779500
227  2 -0.6887 15.928300  6.092760 14.620600
228  2 -0.4580 13.994400 17.404000 20.939800
229  2 -0.7550  1.932130 20.475500  7.267430
230  2 -0.5250 10.254400 14.039400  6.932050
231  2 -0.6606 15.260000  3.826460  9.500550
232  2 -0.2900  4.141820 10.207200  8.027080
233  2 -0.6478  7.535150 17.563700  6.558250
234  2 -0.6897 14.700600  7.346330  8.171260
235  2 -0.4393 12.974500 13.445700  9.340650
236  2 -0.0746 14.142700 19.614900 16.067500
237  2 -0.6049 10.916800 19.123200  4.800320
238  2 -0.6278 13.356000 10.214600 12.770100
239  2 -0.4770  3.985420  1.900300  6.157200
240  2 -0.5363  8.401160 16.647300 11.014700
241  2 -0.5097 16.402500 15.394900  9.204070
242  2 -0.6908  5.477560  9.522500 12.927600
243  2 -0.6890 12.320500  5.392660  6.422960
244  2 -0.6938 12.261000 10.541300  8.257950
245  2 -0.4735 15.701900 12.337300  8.195760
246  2 -0.4474 10.321200 10.220900  1.984960
247  2 -0.7650 11.848000 17.931500  8.358980
248  2 -0.5284  1.266130  8.731890  7.978290
249  2 -0.4985 10.171300 10.973400 13.635800
250  2 -0.6451  8.957000  8.690390 16.090000
251  2 -0.1743  7.481350 12.347200  7.524820
252  2 -0.5913  7.965320 18.641100 27.981200
253  2 -0.6794  9.223290 20.153900 10.461100
254  2 -0.6914  5.373040 17.099300  3.333070
255  2 -0.6661 15.656800 21.627500  9.302230
256  2 -0.6840  9.106220  2.336510  4.640680
257  2 -0.4989  5.734760  5.193440  7.162940
258  2 -0.6339  2.893300 12.135500 10.673200
259  2 -0.0078 15.334400  0.788246 15.125700
260  2 -0.6182  4.664180  0.789623  9.510040
261  2 -0.2779  7.636430  7.761500  2.227430
262  2 -0.5190  1.732730  9.370410  1.319440
263  2 -0.4339 13.965100  2.211710  4.478440
264  2 -0.4042 16.141200  0.874986  1.869700
265  2 -0.4052  6.706900 10.387800  9.421440
266  2 -0.3824 15.634200 12.742100 11.492000
267  2 -0.4700  4.692240  7.441400  0.432050
268  2 -0.6268 10.179000  9.781070  5.752940
269  2 -0.4796  2.775660 15.403800  1.573690
270  2 -0.0509  7.475080 13.714500  4.071330
271  2 -0.6203 11.296500 19.680100 27.468800
272  2 -0.5598  8.067650  3.434250  8.768780
273  2 -0.3541 13.276300  4.067970  0.232222
274  2 -0.6356  1.780500  5.299530  0.812059
275  2 -0.4318 14.263900 21.690600 12.739700
276  2 -0.6673 13.420700 14.990800  6.502040
277  2 -0.4609  6.381030  0.387913 28.395700
278  2 -0.6340  6.582800 19.363200  9.649790
279  2 -0.8193  9.083840  2.242220 27.067200
280  2 -0.3681 10.985700  8.530780 25.262200
281  2 -0.8234  4.360870  7.401600 15.456000
282  2 -0.0107  6.785090  9.389100  2.260080
283  2 -0.5209  0.120312 19.368900  2.627600
284  2 -0.7461  2.702170 16.978700  6.050330
285  2 -0.3272 15.835200  6.839420 27.784200
286  2 -0.4920 13.583800  8.580620  4.149900
287  2 -0.4327  7.608340  0.041403  7.564210
288  2 -0.2738  4.523970 11.671400  2.734340
289  2 -0.5854  0.357768  9.531510 25.777100
290  2 -0.2411 13.749400 16.065900 16.365000
291  2 -0.3715  2.778820 15.048800 12.504900
292  2 -0.4664  0.056756 13.722600 14.981400
293  2 -0.7606  6.269950 14.513200 20.499100
294  2 -0.5526  3.387320  0.707831 22.163500
295  2 -0.4986  1.993550 13.990100 25.646700
296  2 -0.7229 13.876100  9.282770 15.880000
297  2 -0.6156  1.337660  8.532610 16.888000
298  2 -0.1175  9.458350 10.869400 23.765700
299  2 -0.1582  0.168416 16.053400 17.625300
300  2 -0.6587 15.540500  9.451070 22.516500
301  2 -0.5669  8.094310 19.692200 18.506900
302  2 -0.4984  7.687190  5.503890 17.532100
303  2 -0.7333 11.965000 11.764400 25.552400
304  2 -0.7231  6.457480 16.027400 17.164500
305  2 -0.7828  5.965820 10.807000 17.221700
306  2 -0.5074 14.899800  0.083581 22.728600
307  2 -0.5802  2.097120 17.656800 21.760100
308  2 -0.4789  0.507972 21.180200 20.850500
309  2 -0.5231  0.408283  6.383370 19.968200
310  2 -0.7127  3.671690 11.937100 21.405000
311  2 -0.4838 10.093700 21.270700 21.692700
312  2 -0.0308 14.111700 18.449200 14.287600
313  2  0.0988  1.074490 21.153200 15.562900
314  2 -0.1114  1.953110  0.487360 17.136000
315  2 -0.6825 13.839000  4.731990 18.005300
316  2 -0.6490 10.668900  5.830970 15.191400
317  2 -0.0649  0.994612 16.316500 14.207700
318  2 -0.6671  4.362440 12.731900 14.702200
319  2 -0.4243 15.118800 18.473700 10.535200
320  2 -0.0556 15.685500 18.358600 18.970100
321  2 -0.4239  9.625230 16.871000 16.461500
322  2 -0.6925  1.710680  9.729870 13.795600
323  2 -0.4947  6.109480 16.093500 13.431900
324  2  0.0830  1.160440 17.738900 11.644900
325  2 -0.7336  1.517870 13.199300  5.231550
326  2 -0.2285  3.069360 18.579300 15.282000
327  2 -0.6706 11.618800  9.305190 18.825000
328  2 -0.6178 11.265500 16.740600 18.978000
329  2 -0.5907 15.693100 10.352400 18.573900
330  2 -0.5837 11.567700 13.535000 14.626500
331  2 -0.6713 12.594500 13.312600 20.196600
332  2 -0.8423 11.955200  1.473480 14.972000
333  2 -0.6389  9.330120  6.934070  8.123270
334  2 -0.5811 12.421700  0.190703 19.488700
335  2  0.0094  1.229420 20.285800 12.892000
336  2 -0.7290  8.233850  1.892720 12.719600
337  2 -0.4779  6.812470  2.353520 17.385700
338  2  0.0643 16.040600 19.044700 13.125900
339  2 -0.5428  8.248560  6.065460 13.710900
340  2 -0.4376  4.053980  8.180180 19.271100
341  2 -0.6204  9.636360 18.552800 13.383100
342  2 -0.7074  5.754790  3.821870 12.881000
343  2 -0.4193 15.297200  2.148560 16.804600
344  2 -0.7916  2.887710  6.838600 11.687200
345  2 -0.5463  2.525730  8.686080 22.300200
346  2 -0.4895 16.511000  9.095890 10.977900
347  2 -0.5340  7.816100 11.267200 21.266800
348  2 -0.3671  2.576790  0.074497 11.920100
349  2 -0.6156 12.510300 16.507500 12.858500
350  2 -0.1374  4.806080 12.160300  7.779320
351  2 -0.7849  9.400960 12.854600 18.465400
352  2 -0.6975 10.650500  8.288800 11.331400
353  2  0.1208  0.792538 18.552100 15.302300
354  2 -0.0524  0.999777 19.520800 18.008000
355  2 -0.6068  9.860360 20.985000  2.472090
356  2 -0.5538 10.940600  0.162734  8.244360
357  2 -0.5118  6.147350  5.853280 22.000100
358  2 -0.6482  0.688263  3.842790 12.210000
359  2 -0.5336  4.408670  4.602860 18.161700
360  2 -0.6767 11.880600  3.488500  9.322840

