Generated by pymatgen.io.lammps.data.LammpsData

320  atoms

  2  atom types

0.000000 24.637781  xlo xhi
0.000000 17.058433  ylo yhi
0.000000 27.370788  zlo zhi

Masses

1  208.9804
2   78.9600

Atoms

1    1  0.6944  4.776640  3.669720  4.138520
2    1  0.7280  5.610750  3.381100 19.971000
3    1  0.7097  1.433920 10.336600  4.595910
4    1  0.7843  0.237881  6.529290 20.009300
5    1  0.6906 12.458900  7.894130  8.292950
6    1  0.7084 10.531200 16.839800 10.942500
7    1  0.6627 21.966000 15.487900  3.828120
8    1  0.7621  7.853810  7.996060 11.405200
9    1  0.7285  4.806540  7.621280  8.263330
10   1  0.6974 21.130100  1.410380 21.526700
11   1  0.7619 22.127700  9.580960 11.732000
12   1  0.7934  0.894943 16.870200 23.486200
13   1  0.6867 14.181600  2.716620 17.944300
14   1  0.7377 18.152900  4.963990 23.681100
15   1  0.6256 15.616600 12.927000 13.262300
16   1  0.7065 16.096400 15.503900 26.413000
17   1  0.7589  5.501420 17.127500  5.071380
18   1  0.7130  8.571360  8.159140 21.855100
19   1  0.7026  3.932760 16.971000  1.398500
20   1  0.7089  4.523960 14.116000 25.492000
21   1  0.6526 17.273200  9.919040 10.957000
22   1  0.7295 16.569800 16.192900 16.554900
23   1  0.5357 18.105300 11.688100 27.329800
24   1  0.6927 15.172900 13.105000 17.916800
25   1  0.5805 21.759200 16.987900 12.875900
26   1  0.7837 16.120000  2.295100 26.456100
27   1  0.6704  3.547000 11.121800  7.912090
28   1  0.8016 -0.695209  8.580170 23.261000
29   1  0.5512 14.877200 16.602200 11.276100
30   1  0.6953 10.573600 17.411600 20.286500
31   1  0.7510  1.375780 15.069800  9.646820
32   1  0.6915 10.378700 11.219900 20.003500
33   1  0.7021  2.333580  3.930300  7.683390
34   1  0.7840 17.144300  3.712230 20.481100
35   1  0.7002  0.684154 16.105800  5.530250
36   1  0.6801  0.127049 14.081400 15.721000
37   1  0.7208 13.076300  3.957900 10.405800
38   1  0.7791  6.524110  5.627960 15.935100
39   1  0.5904 10.368200  4.879150  3.848710
40   1  0.7535 12.438500  8.914270 16.787800
41   1  0.6393 -2.105490 18.004800  6.344070
42   1  0.7264  0.956186  3.495240 22.820200
43   1  0.5389 20.996600 14.583300 11.478200
44   1  0.7189 21.627200 13.650400 24.954400
45   1  0.6407 12.377200  5.604390 14.642700
46   1  0.5161  8.723680  8.226240 26.307200
47   1  0.6412 12.944900 16.635800 14.499600
48   1  0.6224 10.448000 11.281200 25.800200
49   1  0.6687  8.471120 10.254100  7.407630
50   1  0.6912  4.164710  7.829860 19.502800
51   1  0.7151  4.273240  3.128930  0.345781
52   1  0.6619  3.293180  8.991760 14.811400
53   1  0.8142 19.799300  2.724940 10.855500
54   1  0.6226 10.185200  5.726290 23.809500
55   1  0.7433 21.863600 11.979600  7.452890
56   1  0.7558  1.267180  2.331450 18.796000
57   1  0.8571  6.582950  6.975400  3.070720
58   1  0.6304  4.135350  1.656270 24.418500
59   1  0.7273 -1.320040  7.896070  8.098430
60   1  0.6351  5.573530 10.835900 26.408000
61   1  0.6372 16.938900  2.177900 13.669300
62   1  0.7616 18.718700 15.441200 22.687500
63   1  0.6121 12.768300 13.984800  9.664220
64   1  0.7126 18.251200  7.779090 27.222700
65   1  0.6646  1.153750 12.500700 24.790400
66   1  0.7524  3.762700  3.325970 11.044800
67   1  0.5928  0.766559  2.434330  2.428800
68   1  0.5180  0.597835 16.718700 12.992300
69   1  0.7220  4.614960  9.538650 22.894600
70   1  0.6931  9.055610  2.740980 17.499600
71   1  0.7792 16.476800 11.936800 23.157700
72   1  0.6439  8.488920 15.894800 14.207000
73   1  0.7013  6.472170  4.522790 23.554200
74   1  0.5348 10.423500  2.509330 14.527400
75   1  0.6994  8.194530 15.302900  0.311230
76   1  0.7738  8.969550 13.302800 11.235300
77   1  0.7111 -0.501136  8.726720  0.162938
78   1  0.6451  3.094680  5.963860 16.658800
79   1  0.7382 19.985400 17.503600 27.028500
80   1  0.6579 19.486100  3.011140 16.429900
81   1  0.7319 -2.392810  4.153630 24.251600
82   1  0.5061  2.843900 13.991000 12.876300
83   1  0.8897  1.109700 13.684700  2.014050
84   1  0.5781  2.705990 16.415500 15.949000
85   1  0.5863 10.738900  4.469470  0.102077
86   1  0.7351 17.046900  5.553320 16.771000
87   1  0.6450 15.348700 10.090000 26.110000
88   1  0.6910 15.070400  8.478520 14.493800
89   1  0.7029 15.215700 17.273100 22.438200
90   1  0.7265  8.039590  4.174150 11.597400
91   1  0.7755  3.807900 15.396700 20.540500
92   1  0.8204  8.090860 11.089600 15.176400
93   1  0.8084 19.912100  6.589580 20.758100
94   1  0.7252 20.967600  5.552050 13.480500
95   1  0.5722 20.333500 13.452700  1.100770
96   1  0.7204 -0.328456  7.176110 13.489500
97   1  0.7058 20.211900  6.777280  9.324200
98   1  0.7010  1.358230 10.249100 19.460000
99   1  0.7915  5.378540 14.689100 10.883900
100  1  0.6977 19.569700 15.997500 19.105000
101  1  0.7329 12.144700 11.890500 14.003100
102  1  0.6455 13.952800  5.972520 22.515900
103  1  0.5431  7.819690  5.600840  8.235200
104  1  0.4493  9.329390  2.205860  2.292590
105  1  0.5573 13.743000  2.406210 14.075800
106  1  0.5239  6.286610 13.807200 15.764300
107  1  0.7264  5.261430 18.158700 13.806200
108  1  0.7890  7.802480 14.545500 18.651900
109  1  0.6501 17.581100  9.871590  6.862360
110  1  0.6800 12.549500  6.187140 19.988200
111  1  0.6806 18.029300 12.950200  9.063720
112  1  0.7061 16.811400  6.502550 12.737700
113  1  0.7921  0.061885  2.754110 10.380400
114  1  0.6621 -1.185680 16.255600 27.089300
115  1  0.6992  1.566120 11.110200 11.584000
116  1  0.5079  4.445720 11.112200 17.859000
117  1  0.6804  6.681030  1.476510  8.410840
118  1  0.6872 11.513400 14.742500 26.504400
119  1  0.6270 18.969100 11.406200  3.696360
120  1  0.6000 12.240000 13.265500 21.933100
121  1  0.7262  3.656910  7.302470 26.898900
122  1  0.8051 11.859700  1.585630 24.690500
123  1  0.6699 11.795800 10.403800 10.639600
124  1  0.7406  7.310850 16.572000 23.933800
125  1  0.6939 -0.324449  5.478080  5.673900
126  1  0.6633 -1.869920  3.740810 18.067700
127  1  0.6354 -2.165850 15.553000  9.058630
128  1  0.5445 13.724300 16.199300 19.455800
129  2 -0.6915  6.183410  1.958300 11.302500
130  2 -0.4513  7.599180  4.817070 18.548200
131  2 -0.7812  3.007650 16.317800 11.471600
132  2 -0.5726 -0.705396  1.759570 24.240500
133  2 -0.6172 -1.914490  6.392460 10.483000
134  2 -0.5462 17.983400  9.966180 24.823300
135  2 -0.1610 20.732700 13.801100 17.914800
136  2 -0.7152 15.904100 14.046800 21.075100
137  2 -0.4581 16.693900  7.392960  9.241040
138  2 -0.4576  3.622760 17.485300 18.573200
139  2 -0.5586  6.493190  9.543250  9.444100
140  2 -0.6143  2.409900  7.996060 21.519600
141  2 -0.8702 15.126400  5.708920 14.795600
142  2 -0.5725  7.206500 11.044700 24.066700
143  2 -0.0485 15.346300 16.898500  7.501220
144  2 -0.6624 12.185600 17.546100 17.699700
145  2 -0.0294 14.717300  2.058060  7.253190
146  2 -0.3633 -1.246190  9.081950 20.678800
147  2 -0.0471 13.642600  8.015580  4.754520
148  2 -0.8169 -0.364398 14.146900 12.429400
149  2 -0.0417  5.897410 11.759300  3.954490
150  2 -0.7609 10.608100 14.781000 12.875900
151  2  0.0682 15.490100 16.098300  3.895770
152  2 -0.6765  7.146640 12.005700 17.433000
153  2 -0.4895  6.316700  4.976280  1.337730
154  2  0.0286 20.736500 10.789500 15.072100
155  2 -0.4403  5.337360  9.047990  5.869200
156  2 -0.5927  5.751140  8.528830 17.239300
157  2 -0.3679 11.593800 15.855500  8.103290
158  2 -0.4533 11.033500 11.726500 16.876200
159  2 -0.4257 21.423300  9.598370  5.639230
160  2 -0.4149  4.428080  3.506960 16.817600
161  2 -0.6267 -0.546086  3.483160  7.277790
162  2 -0.5212  1.379250  1.442240 26.461100
163  2 -0.6560  9.210390 10.787100 11.439200
164  2 -0.7183  2.174490 11.710800 14.779600
165  2 -0.4647  2.578130  2.040070 14.471600
166  2 -0.5778 18.111700 17.024500 24.632000
167  2 -0.4018 -0.572492  9.384720  3.282660
168  2 -0.0312 18.126900  5.822670  3.655830
169  2 -0.5642  4.053700 12.409800 10.495800
170  2 -0.6330  6.357580 18.372300  2.196300
171  2 -0.5817  9.271200  7.151470  6.401630
172  2 -0.5385  5.675350  7.058190 25.012400
173  2 -0.5087  9.647870 15.037800 16.711200
174  2 -0.6002 12.768600  3.914630 25.613300
175  2 -0.6781 20.386900 14.287100  8.259370
176  2 -0.6790 12.011500  9.644560 23.517900
177  2  0.0123 10.171100 12.715800  4.378000
178  2 -0.6228 -1.547790  5.762030 21.899900
179  2 -0.4200  9.902350 12.461900  0.895253
180  2 -0.7142 18.541200 13.615700 24.880500
181  2 -0.4144  0.181043  5.856000 24.718200
182  2 -0.5552  9.659800 14.648800 20.304800
183  2 -0.6512 20.289100 10.798300  0.829315
184  2 -0.0765 -1.240110 11.684900 18.148200
185  2 -0.2420 14.412800 13.031600  1.942680
186  2 -0.0412 19.576200 12.176400 19.090500
187  2 -0.7049  5.934140 16.484400 26.223800
188  2 -0.6171  7.692970 15.871200 11.074500
189  2 -0.4217 17.028900 17.366300  0.882517
190  2 -0.6086 11.200900  4.701100 17.427500
191  2 -0.5127 19.110400  2.841400 26.197000
192  2 -0.5479 13.310600  9.519470 19.265100
193  2 -0.1333  8.571410 10.008800  4.377570
194  2 -0.6362  2.045130 18.258700 21.580300
195  2 -0.4051  2.883270 15.410700  7.193610
196  2 -0.2647  9.204770  8.952460 18.122400
197  2 -0.6290  8.564710  5.052980 26.157800
198  2 -0.5164  8.656490  2.560250 23.379000
199  2 -0.1258 13.285700  8.459490  1.077260
200  2 -0.6324 12.406800 16.172200 22.527200
201  2 -0.3620  2.743320 13.192300  4.401130
202  2 -0.6374  9.501090  5.825000 21.487300
203  2 -0.5032  9.223630  6.932820  2.237660
204  2 -0.4495  1.521110 13.598900 18.650200
205  2 -0.2522 21.325100  6.432910  5.145660
206  2  0.0070 21.674200  9.159340 16.190900
207  2 -0.6497 14.443700 12.800000 24.770100
208  2 -0.6299 17.900300 17.862200 21.546400
209  2 -0.5043  1.439390  4.974120 10.161600
210  2 -0.6572  1.170430  9.437420 24.949500
211  2 -0.3321  0.929162 14.276500 22.302900
212  2 -0.3545 -2.427870  2.739360  3.698140
213  2 -0.6976 10.383300  4.591890 12.716400
214  2  0.0832 13.484800 13.612000  3.928410
215  2 -0.6824 14.277900 14.959100 16.450400
216  2 -0.3111 13.595000 16.259100  1.805890
217  2 -0.4800 -1.111040  4.219450 13.783100
218  2 -0.6128  2.927680  4.824510  2.481170
219  2 -0.4654 -0.616601  9.608240 14.165400
220  2 -0.6475 -1.287870 13.487700 27.304900
221  2 -0.6071  7.189730  3.135520 14.922200
222  2 -0.6117 14.559100 11.338700 15.461400
223  2 -0.5959 17.088600 15.442200 12.592000
224  2 -0.2255  6.763490 14.756900  3.188660
225  2 -0.2889  6.051210 13.317600  7.687880
226  2 -0.6359 17.168500  1.802700 18.072100
227  2 -0.5912  2.970910  1.796390  9.074480
228  2 -0.5397  9.337810 13.574800 25.197400
229  2 -0.4618 22.054600  6.362180 18.413400
230  2 -0.2627  7.990490 16.190900  7.242230
231  2  0.0376 17.456500  3.696270  3.421000
232  2 -0.8762 13.285500 12.207300 11.457300
233  2  0.0020 12.411000 10.272900  2.451290
234  2 -0.4238  9.868030  2.406780  9.311210
235  2 -0.3560 -1.597790 12.227200 23.192200
236  2 -0.6710 20.799200  9.756510  9.245200
237  2 -0.4904 16.842200  9.572110  1.835990
238  2 -0.1875 17.592900 11.453200 20.095800
239  2 -0.7511  3.284960 18.328400  4.157450
240  2 -0.5752  0.428687  4.691470 17.351600
241  2 -0.7076  6.212740  5.888110 10.536000
242  2 -0.3948  7.731960 10.172300 20.506800
243  2 -0.5919 -0.454189 13.269400  8.140880
244  2 -0.6137  2.280360 15.132400 27.352500
245  2 -0.6240 18.058500  4.527770 11.670600
246  2 -0.5452 15.578700  3.300630 23.105800
247  2 -0.7146 -2.379890  1.438460 10.546900
248  2 -0.6348 20.044300  2.292800 13.612400
249  2 -0.6612  4.640740  5.777900  6.130650
250  2 -0.5359  5.818650  7.074100 21.528000
251  2 -0.5348 -0.061369 10.191200  9.263430
252  2 -0.6647  4.289580 16.127900 23.417200
253  2 -0.5865 14.261800 17.373600 25.435200
254  2 -0.0791 17.903000 11.604700 16.423600
255  2 -0.6127 20.048400  7.892750 11.722400
256  2 -0.6392 10.095900 16.916400 25.713000
257  2  0.0054 12.467100 15.080500  5.678760
258  2 -0.5121 17.235300  6.617040 21.701600
259  2 -0.1267 15.062300 10.456300  5.149360
260  2 -0.5501 -0.271189 16.543600 16.201400
261  2 -0.7518  0.073042 15.945600  2.901660
262  2 -0.6014 19.515500  5.848170 15.716900
263  2 -0.6242 15.930900 11.000100  9.062680
264  2 -0.1713 18.770800 13.329200 15.192700
265  2 -0.5888  7.681660  2.585780  5.347690
266  2 -0.5196  7.541010 18.124900 19.803800
267  2 -0.5211 -2.129510 16.259100 24.350700
268  2 -0.2569 20.571600  2.733590  7.036740
269  2 -0.5350  5.731090  8.592010  0.938604
270  2 -0.3458 16.205800  7.951290 17.476000
271  2 -0.0220 15.380200  4.609480  6.516900
272  2 -0.5216 19.943000  6.661630 24.449300
273  2 -0.3864 14.739400  7.187030 26.361900
274  2 -0.5753  3.715170  4.075680 25.237800
275  2 -0.5865  1.259750  7.497720  7.092920
276  2  0.0104 -1.728510 13.485300 19.947300
277  2 -0.5923 12.917900  7.442530 10.874300
278  2 -0.8176 15.249200  1.308510 15.713300
279  2 -0.9052 12.225500  1.354590 12.441900
280  2 -0.3106  8.772300  8.113050 14.437000
281  2 -0.1621 19.647900  5.618820  1.429390
282  2 -0.6409  2.517390  4.206680 20.495200
283  2 -0.2923 18.857900 17.193800  9.359760
284  2 -0.4192 19.457100 16.858700 16.053100
285  2 -0.4270 11.914100 11.031600  7.519720
286  2 -0.0829 16.505300  4.717750  8.273160
287  2 -0.0603  9.274530 14.441200  5.338970
288  2 -0.3509  6.188720 13.783300 21.359600
289  2 -0.4740 15.804400  2.161010 10.754400
290  2 -0.5126  3.212520 11.990000 22.245600
291  2 -0.6178 11.958300  8.654340 14.299000
292  2 -0.1541 20.059100  9.317120 22.168200
293  2 -0.0116 15.287600  1.350310  4.146030
294  2 -0.5402 21.573300 18.075300 18.397400
295  2 -0.7451 20.448600 15.950300  1.769670
296  2 -0.3935  2.304420  7.871020 12.018600
297  2 -0.4908 -1.076820 13.203400  4.494290
298  2 -0.7761 20.063300  3.983340 21.484500
299  2  0.0235 19.029400 17.683400  4.904000
300  2 -0.4234  5.175480  6.763540 13.536300
301  2 -0.3583 11.970400  4.952580  7.325530
302  2 -0.6824 15.423100  4.821730 19.269800
303  2 -0.4749 17.923000 12.589900  5.832280
304  2 -0.5385 12.786800  3.864490 21.334600
305  2 -0.6803  6.998070 13.315700 13.098500
306  2 -0.5183  1.644610 11.070700  0.819854
307  2 -0.2782  5.503200 10.490900 12.899400
308  2 -0.4467  5.129790 12.944700  0.660517
309  2  0.0182 18.934900  8.703800 18.173000
310  2 -0.0861 15.413500 14.291800  6.918370
311  2 -0.4626 19.617100 12.103000 12.149400
312  2 -0.4574 21.352000 15.917800 21.745500
313  2 -0.7803  1.779380  7.968080 17.852100
314  2 -0.2677 -1.664270  5.301430  0.339651
315  2 -0.6601  5.657700 16.744600 16.254100
316  2 -0.1912 14.389200  5.195630  1.694040
317  2 -0.3993 17.919800  8.538680 14.136500
318  2 -0.0997 14.241200  5.197420  3.967510
319  2 -0.2202 19.153300 15.597400  5.018200
320  2 -0.6578 -0.056500 17.032600  8.313430

