Generated by pymatgen.io.lammps.data.LammpsData

48  atoms

 2  atom types

0.000000 12.100325  xlo xhi
0.000000 12.100326  ylo yhi
0.000000 6.997800  zlo zhi

Masses

1  106.42
2   78.96

Atoms

1   1  8.161210  7.919160 0.536845
2   1  6.005320  7.460360 2.915750
3   1  6.579880  2.159520 6.963120
4   1  7.723640 11.532900 0.916218
5   1  9.615400  9.186610 5.195600
6   1  4.698620 11.633600 6.199580
7   1  7.133690  2.330400 3.246740
8   1  1.824080  5.106290 0.152342
9   1 11.411500  4.623040 0.939019
10  1  0.663064 -0.049888 0.695309
11  1  1.234000 10.047100 1.968700
12  1  1.192250  6.044780 2.472690
13  1  4.748780  0.755854 3.366760
14  1  3.806670  6.684040 0.861726
15  1  3.255940  2.541210 6.557020
16  1  6.234340  4.919580 4.728820
17  1  3.747460  6.664010 3.813900
18  1 10.765100 -0.229678 6.012050
19  1  8.530380  6.023890 5.359020
20  1  0.960973  7.007000 4.584020
21  1  5.710570  7.457470 6.106870
22  1  7.964050 11.030200 4.167060
23  1  5.439560  9.716050 3.949930
24  1  0.930637  0.626693 5.062340
25  2  1.607350  7.846700 0.280902
26  2  6.505630 10.126000 6.213560
27  2 11.164100  8.219290 3.251260
28  2  4.829230  3.147430 4.799370
29  2 11.121200  2.415590 2.913710
30  2  3.376950 10.790800 3.737850
31  2  2.394380  0.850605 2.548170
32  2 10.150900  0.139821 3.398260
33  2  4.734860  4.729440 1.385280
34  2  4.475760  1.276850 1.110350
35  2 10.708400  6.071430 4.306160
36  2  6.999360  5.281900 0.307923
37  2 10.920100  2.387980 6.074290
38  2  1.137420  3.279220 0.636776
39  2  1.485640  8.977710 4.126470
40  2  8.241730  6.478050 2.662590
41  2  8.542250  2.891410 1.384650
42  2  7.385400  7.926700 4.722140
43  2  2.880380  4.010810 4.340510
44  2  9.161980  3.122210 4.518380
45  2  8.544040  0.899190 5.895820
46  2  2.146690 10.746800 6.438130
47  2  4.146260  9.383310 1.946890
48  2 10.183400 10.312800 0.769681

