Generated by pymatgen.io.lammps.data.LammpsData

360  atoms

  2  atom types

0.000000 16.871067  xlo xhi
0.000000 22.058404  ylo yhi
0.000000 29.928687  zlo zhi

Masses

1  208.9804
2   78.9600

Atoms

1    1  0.7732  1.920100 13.869600 21.576900
2    1  0.7315  4.600460 17.316200 21.277200
3    1  0.7579  1.919860  6.120910 21.599300
4    1  0.7635  4.466660 10.014800 21.519600
5    1  0.7828  6.501080 13.364200 21.219100
6    1  0.7838  8.464060 17.037800 21.237600
7    1  0.7424  2.657910 20.891100 21.284100
8    1  0.7478  4.362070  2.451060 21.223200
9    1  0.7126  6.442840  6.075380 21.678400
10   1  0.7249  8.538220  9.882710 21.293400
11   1  0.7846 10.657700 13.409000 21.050100
12   1  0.8171 12.854300 16.995100 21.265700
13   1  0.7829  6.740860 20.820300 21.015700
14   1  0.7390  8.804830  2.588870 21.557200
15   1  0.7413 10.781600  6.088450 21.373200
16   1  0.7678 12.892700  9.985360 21.455700
17   1  0.7566 14.832300 13.379100 21.445000
18   1  0.7114 16.985200 17.426500 21.426600
19   1  0.7893 10.853800 20.945000 21.173400
20   1  0.7618 13.029200  2.368780 21.477700
21   1  0.8060 14.923400  6.050750 21.660100
22   1  0.7887  0.160186  9.881110 21.380500
23   1  0.7320 15.070500 20.976100 21.542100
24   1  0.7446  0.321252  2.306490 21.823100
25   1  0.8041  2.333080 13.181300 28.576400
26   1  0.7284  4.620730 16.768800 28.435500
27   1  0.7228  2.359580  6.281300 28.584600
28   1  0.7537  4.683450  9.959260 28.198000
29   1  0.6994  6.731740 13.271800 28.513300
30   1  0.7000  8.688060 17.116000 28.481600
31   1  0.7369  2.511380 20.637900 28.537200
32   1  0.7916  4.382590  2.656460 28.488400
33   1  0.7672  6.349170  5.734710 28.341100
34   1  0.7593  8.871950  9.414010 28.377100
35   1  0.7676 10.834600 12.948000 28.534500
36   1  0.7427 13.228400 17.134500 28.221700
37   1  0.7697  6.702240 20.549600 28.566400
38   1  0.7447  8.632030  2.293770 28.299300
39   1  0.8108 10.812700  6.122800 28.141900
40   1  0.7749 13.066600  9.493130 28.432300
41   1  0.7378 14.747500 13.005600 28.819700
42   1  0.7173  0.283420 16.814900 28.188600
43   1  0.7276 10.702100 20.638200 28.157700
44   1  0.7364 13.019100  2.442150 27.975300
45   1  0.7767 14.880000  5.970760 27.991500
46   1  0.7375  0.227818  9.532440 28.559900
47   1  0.7524 15.326100 20.616000 28.568800
48   1  0.7822  0.117173  2.183040 28.492400
49   1  0.8288  2.330290 15.757200  2.259760
50   1  0.7737  4.431070 19.394800  1.803930
51   1  0.7790  2.276310  8.362550  2.163800
52   1  0.8100  4.635850 12.094700  1.889020
53   1  0.7454  6.973950 15.625800  2.004780
54   1  0.7671  8.933070 19.416500  1.773400
55   1  0.8056  2.301240  1.044950  1.977310
56   1  0.7914  4.441950  4.677870  2.123730
57   1  0.8038  6.626700  8.223190  1.659520
58   1  0.8069  8.653160 11.960700  2.065760
59   1  0.8305 10.910800 15.639800  1.945090
60   1  0.7910 12.775100 19.825000  1.796250
61   1  0.7967  6.784900  1.281620  2.122270
62   1  0.7736  8.565650  4.585250  1.858740
63   1  0.7793 10.628200  8.098180  1.979230
64   1  0.8285 13.058300 11.905600  2.219030
65   1  0.7794 14.884800 15.862200  2.059580
66   1  0.7321  0.361010 19.419100  1.861260
67   1  0.7658 10.729100  1.360950  1.851900
68   1  0.8080 12.961900  4.614620  1.824680
69   1  0.7929 15.005600  8.222880  2.082170
70   1  0.8293  0.233823 12.020200  2.181570
71   1  0.7553 14.936100  1.161890  1.774510
72   1  0.7969  0.302500  4.953480  1.789590
73   1  0.7119  2.097600 15.720900  8.138750
74   1  0.7798  4.493060 19.322600  8.562770
75   1  0.7684  2.383920  8.469570  8.608410
76   1  0.7376  4.364930 12.329300  8.452510
77   1  0.7706  6.659810 15.760100  8.343230
78   1  0.8302  8.673620 19.447100  8.178500
79   1  0.7691  2.386260  1.027560  8.307310
80   1  0.7791  4.711790  4.542330  8.566590
81   1  0.7793  6.450090  8.510380  8.668420
82   1  0.7611  8.611330 11.895800  8.339490
83   1  0.7436 10.764100 15.950300  8.170500
84   1  0.7365 12.906900 19.424700  8.515340
85   1  0.8446  6.536630  0.980390  8.236990
86   1  0.7909  8.750930  5.018990  8.064600
87   1  0.7985 10.925000  8.270910  8.176320
88   1  0.7815 12.905100 11.987200  8.407550
89   1  0.7833 15.040500 15.782100  7.976620
90   1  0.7520  0.086122 19.302500  8.148520
91   1  0.7474 10.833000  1.094660  8.288420
92   1  0.7565 12.781900  4.662530  8.329730
93   1  0.7351 14.988900  8.363350  8.436510
94   1  0.7466  0.301284 12.106400  8.169240
95   1  0.7293 14.999300  1.031540  8.279200
96   1  0.7690 -0.019377  4.829350  8.600230
97   1  0.7843 17.037400 14.556300 11.801700
98   1  0.7854  2.536960 18.414500 11.763000
99   1  0.7593  0.321945  7.026890 11.616500
100  1  0.8330  2.162050 11.059600 11.675400
101  1  0.7929  4.510590 14.559000 11.367000
102  1  0.7813  6.643350 18.393500 11.933100
103  1  0.7831  0.200802 21.905400 11.758300
104  1  0.7765  2.348370  3.451430 11.500300
105  1  0.7884  4.453690  7.062470 11.685700
106  1  0.7559  6.613850 11.000200 11.599800
107  1  0.7251  8.976610 14.598700 11.430900
108  1  0.7762 10.874800 18.341700 11.735100
109  1  0.7617  4.443310 22.143300 11.751100
110  1  0.7781  6.504960  3.415050 11.842000
111  1  0.8099  8.530520  7.353310 11.732600
112  1  0.8124 10.855600 10.696700 11.786700
113  1  0.7993 12.898600 14.360600 11.721400
114  1  0.8275 15.156300 18.463300 11.906700
115  1  0.8080  8.689900 -0.011012 11.438000
116  1  0.8089 10.513300  3.627650 11.673500
117  1  0.8183 12.804900  7.020970 11.677800
118  1  0.7343 15.037700 10.951400 11.842000
119  1  0.7902 12.742800 21.900200 11.936800
120  1  0.8067 14.844200  3.396460 11.818800
121  1  0.7487  0.099862 14.858200 18.048300
122  1  0.8111  2.458960 18.785900 18.092100
123  1  0.7528 -0.002749  7.380850 17.983300
124  1  0.7786  2.361880 10.995100 17.964200
125  1  0.7596  4.281060 14.511100 18.251600
126  1  0.7871  6.579630 18.632500 17.612500
127  1  0.8009 16.920400 22.100800 17.775000
128  1  0.7997  1.803360  3.812220 18.233900
129  1  0.7803  4.410690  7.461230 17.731100
130  1  0.7565  6.647110 10.748400 18.056100
131  1  0.7772  8.704450 14.841700 17.600200
132  1  0.7918 10.711900 18.149700 17.946000
133  1  0.8685  4.597640  0.224267 17.825500
134  1  0.7901  6.513830  3.507460 17.950700
135  1  0.7976  8.655730  7.315590 17.878100
136  1  0.7980 10.783400 11.128100 17.590500
137  1  0.8074 12.761300 14.783900 17.710100
138  1  0.7353 15.018300 18.770500 17.915000
139  1  0.7991  8.715900  0.283799 17.705300
140  1  0.7979 10.646200  3.943580 17.794800
141  1  0.7731 12.671300  7.475280 18.055100
142  1  0.7818 14.962300 11.452100 17.955300
143  1  0.7662 12.901300  0.005889 17.782500
144  1  0.8117 14.817100  3.761970 18.095200
145  2 -0.8095  0.597824 14.359600  0.343733
146  2 -0.8810  2.594990 18.007300  0.187822
147  2 -0.9352  0.270293  7.295430 30.169000
148  2 -0.8373  2.550920 10.935800  0.295846
149  2 -0.8343  4.389370 14.448100  0.428100
150  2 -0.9009  6.781160 18.174900  0.414496
151  2 -0.9274  0.283420 22.056000 29.993700
152  2 -0.8643  2.396650  3.341180 30.334500
153  2 -0.8836  4.411050  7.187710  0.381823
154  2 -0.8964  6.467420 10.767700  0.216923
155  2 -0.9162  8.948140 14.363800  0.565980
156  2 -0.8734 11.003600 18.227900 30.020500
157  2 -0.8315  4.589090 21.900100  0.129194
158  2 -0.9230  6.405400  3.529520  0.395461
159  2 -0.8877  8.630200  7.016030 29.765100
160  2 -0.8568 10.716200 10.666400  0.319102
161  2 -0.8547 12.764700 14.336100  0.380259
162  2 -0.8887 15.128700 18.221400  0.168603
163  2 -0.8800  8.711370 22.119900  0.068201
164  2 -0.8615 10.794300  3.584250 29.901700
165  2 -0.8754 12.898000  7.066260 29.766700
166  2 -0.9077 15.017800 10.850600  0.639062
167  2 -0.8784 12.882900 21.899900 30.091000
168  2 -0.8780 14.940800  3.748990  0.041207
169  2 -0.2694  2.383630 15.259700 26.366100
170  2 -0.3261  4.575540 19.249800 26.757700
171  2 -0.2560  2.424750  8.583900 26.190500
172  2 -0.4027  4.720380 12.281300 26.792900
173  2 -0.3005  6.603940 15.311800 26.493800
174  2 -0.4012  8.327240 19.292600 26.752600
175  2 -0.2582  2.208110  1.341350 26.593900
176  2 -0.4074  4.416800  4.871500 26.793800
177  2 -0.3280  6.832580  8.121460 26.445800
178  2 -0.3150  9.206570 11.925500 26.550200
179  2 -0.2590 10.952200 15.843700 26.471400
180  2 -0.3189 13.473900 19.697300 26.501200
181  2 -0.2849  6.593650  1.103380 26.625000
182  2 -0.2720  8.381310  4.647810 26.201300
183  2 -0.3220 11.221000  8.753090 26.556400
184  2 -0.3681 13.041400 11.903800 26.897700
185  2 -0.3697 15.227000 15.366600 26.721500
186  2 -0.2988  0.421054 19.731900 26.465500
187  2 -0.2536 10.753500  0.879726 25.984500
188  2 -0.3932 12.415400  4.948520 26.377900
189  2 -0.3637 15.062700  8.401330 26.631000
190  2 -0.3087  0.167419 11.748800 26.774800
191  2 -0.3469 15.315900  1.104410 26.525000
192  2 -0.3083  0.528294  4.773000 26.435100
193  2 -0.3632 16.729900 14.494900 23.245000
194  2 -0.2765  2.391660 18.504200 23.439800
195  2 -0.3452  0.175210  7.569500 23.283800
196  2 -0.2790  2.223560 11.418100 23.302100
197  2 -0.2918  4.527940 15.337400 23.132400
198  2 -0.3606  6.719780 18.397400 22.908400
199  2 -0.2871 17.485000 21.630400 23.413800
200  2 -0.3274  2.462400  3.403370 23.355300
201  2 -0.2624  4.304900  6.995650 23.660700
202  2 -0.4163  6.538310 11.070800 23.032600
203  2 -0.3692  8.755650 14.559100 22.695100
204  2 -0.3001 10.766400 18.230200 22.975400
205  2 -0.3790  4.643180 22.073100 22.805300
206  2 -0.3173  6.320570  3.739010 23.315000
207  2 -0.2856  9.178150  7.395710 23.485800
208  2 -0.2654 10.831900 10.843900 23.319600
209  2 -0.3558 12.478000 14.604700 22.887800
210  2 -0.3661 14.909800 18.438200 23.105800
211  2 -0.3265  8.837430 21.692400 23.011800
212  2 -0.3702 10.504500  3.437360 23.365700
213  2 -0.3047 13.102100  7.575170 23.283500
214  2 -0.2733 15.298900 10.836400 23.365100
215  2 -0.3017 13.105000 21.958300 23.442700
216  2 -0.4247 15.075300  3.511320 23.253700
217  2 -0.9168  2.190820 13.463000 10.037400
218  2 -0.8714  4.697710 17.030700 10.202800
219  2 -0.9090  2.479110  5.922210 10.178200
220  2 -0.8661  4.287980  9.742840 10.325900
221  2 -0.9313  6.594660 13.444400  9.876820
222  2 -0.8829  8.744490 17.114700  9.945040
223  2 -0.8678  2.350350 20.824400  9.994440
224  2 -0.9390  4.634150  2.217640  9.868440
225  2 -0.8944  6.699850  6.012240  9.931260
226  2 -0.8787  8.853430  9.469330  9.969120
227  2 -0.8632 10.889500 12.958100  9.966390
228  2 -0.8148 13.063400 16.894000  9.936060
229  2 -0.8538  6.735270 20.684000  9.823920
230  2 -0.8631  8.523940  2.280990  9.959460
231  2 -0.8786 10.728800  6.062670 10.199400
232  2 -0.8769 12.765700  9.496230 10.086800
233  2 -0.8511 14.909100 13.483500  9.949090
234  2 -0.8320  0.296464 17.305500 10.093000
235  2 -0.8892 10.647000 20.749500 10.153600
236  2 -0.8771 12.679300  2.325250 10.360300
237  2 -0.9260 14.859000  5.989340 10.028500
238  2 -0.8997  0.301214  9.736080 10.136100
239  2 -0.8901 14.962000 20.625500 10.134900
240  2 -0.8891  0.175490  2.340140 10.005600
241  2 -0.3981 17.019500 14.383100  6.355180
242  2 -0.3609  2.103600 18.589500  6.506230
243  2 -0.3358  0.155913  7.288010  6.714750
244  2 -0.3384  2.399100 10.813400  6.519320
245  2 -0.3807  4.565030 14.569600  6.570450
246  2 -0.3447  6.647080 18.263300  6.652080
247  2 -0.2340 17.048500  0.134522  6.053180
248  2 -0.2656  2.184260  3.553970  6.507020
249  2 -0.3508  4.584780  7.117620  6.966380
250  2 -0.3624  6.533290 10.587500  6.809880
251  2 -0.2945  8.851810 14.336000  6.247330
252  2 -0.3555 11.035300 18.274100  6.540320
253  2 -0.3429  4.469400 21.726400  6.713450
254  2 -0.3274  6.756590  3.257400  6.511080
255  2 -0.3525  8.888530  7.344420  6.623910
256  2 -0.2883 10.995800 10.783600  6.356260
257  2 -0.3652 12.965700 14.538600  6.652060
258  2 -0.2981 14.791100 18.198400  6.227070
259  2 -0.3362  8.470660 21.610500  6.578110
260  2 -0.3790 11.025200  3.689990  6.560360
261  2 -0.2992 12.798600  7.205850  6.230950
262  2 -0.2977 15.211800 10.711800  6.312440
263  2 -0.3734 12.899000 21.728700  6.629440
264  2 -0.3673 14.873800  3.639240  6.771510
265  2 -0.3549  2.412070 13.386400  3.725190
266  2 -0.2822  4.447190 17.207600  3.958130
267  2 -0.3283  2.186500  5.850230  3.819700
268  2 -0.2210  5.020960  9.302050  3.962470
269  2 -0.3232  6.554120 13.046200  3.948380
270  2 -0.3369  9.105840 16.764600  3.813420
271  2 -0.3358  2.379240 20.865700  3.746720
272  2 -0.2886  4.545200  2.409010  4.045830
273  2 -0.3282  6.464960  5.841930  3.732100
274  2 -0.4343  8.647590  9.318490  3.196730
275  2 -0.3091 10.986600 13.099600  3.824840
276  2 -0.3217 12.929900 17.125800  3.601650
277  2 -0.3093  6.683570 20.670600  3.551220
278  2 -0.3989  8.589490  2.410070  3.709500
279  2 -0.3709 10.565800  5.690490  3.550220
280  2 -0.3319 13.114700  9.517780  3.849020
281  2 -0.4007 15.078700 13.422000  3.572970
282  2 -0.3625  0.195774 17.126900  3.795000
283  2 -0.3536 10.648300 20.847000  3.580700
284  2 -0.3508 12.755400  2.521870  3.621250
285  2 -0.3512 14.876900  5.631380  3.533530
286  2 -0.4007  0.205528  9.439450  3.612070
287  2 -0.3122 15.283200 20.579500  3.690600
288  2 -0.3674 17.204600  2.374060  3.340980
289  2 -0.8735  2.302900 16.248000 19.775900
290  2 -0.9106  4.753860 19.975600 19.281700
291  2 -0.8435  2.364890  8.794290 19.726100
292  2 -0.8815  4.233210 12.403500 20.078100
293  2 -0.8891  6.633720 15.752100 19.649300
294  2 -0.8624  8.772030 19.800500 19.380700
295  2 -0.8397  2.442270  1.196830 19.421400
296  2 -0.8211  3.978190  4.949930 19.678600
297  2 -0.8963  6.417660  8.602350 19.558300
298  2 -0.8918  8.811640 12.044900 19.313400
299  2 -0.8918 10.696000 15.831800 19.485700
300  2 -0.8483 12.722400 19.623100 19.620700
301  2 -0.8989  6.614550  1.334170 19.528700
302  2 -0.8770  8.569310  4.960480 19.590400
303  2 -0.8625 10.676700  8.449690 19.642300
304  2 -0.9181 12.873700 12.255400 19.588500
305  2 -0.8678 14.682700 16.048100 19.735800
306  2 -0.9106  0.490831 19.872400 19.615900
307  2 -0.8490 11.011600  1.235960 19.676700
308  2 -0.8523 12.818400  4.833160 19.674100
309  2 -0.8410 14.873500  8.521840 20.085200
310  2 -0.8884 16.963800 12.311500 19.744500
311  2 -0.8782 15.074100  1.330000 19.817400
312  2 -0.9043 -0.055857  4.952960 19.969700
313  2 -0.3422  2.393210 13.350500 16.345600
314  2 -0.3658  4.349080 17.297700 16.477400
315  2 -0.3282  1.928400  5.941340 16.236700
316  2 -0.3026  4.629630  9.789100 15.953500
317  2 -0.2809  6.447000 13.130500 16.043700
318  2 -0.3476  8.821380 17.241200 15.881500
319  2 -0.3282  2.439340 21.135200 16.205000
320  2 -0.2859  4.341310  2.486340 16.165600
321  2 -0.3289  6.535950  5.972620 16.154700
322  2 -0.3433  8.673090  9.579970 16.081900
323  2 -0.3564 10.545800 13.567800 15.913800
324  2 -0.3615 12.996800 17.310400 16.250500
325  2 -0.3611  6.605580 21.133600 16.081000
326  2 -0.3934  8.605550  2.626990 16.212300
327  2 -0.3749 10.916900  6.137250 16.253600
328  2 -0.3534 12.951500  9.959660 16.056300
329  2 -0.4125 14.902600 13.817200 16.277500
330  2 -0.2699  0.465783 17.300400 16.046400
331  2 -0.2899 10.647800 20.932800 15.952900
332  2 -0.3052 12.731200  2.669500 16.066900
333  2 -0.3464 14.792800  5.836390 16.327200
334  2 -0.4004  0.164461  9.872110 16.477300
335  2 -0.4269 14.860900 21.104500 16.114600
336  2 -0.3373 16.809300  2.607300 16.315800
337  2 -0.3159  2.470450 15.799400 13.319600
338  2 -0.3479  4.463840 19.515900 13.639400
339  2 -0.3179  2.573870  8.367920 13.376800
340  2 -0.3353  4.301930 12.122700 13.188000
341  2 -0.2669  6.805520 15.955900 13.692100
342  2 -0.3300  8.725850 19.602500 13.511900
343  2 -0.3589  2.535140  1.454710 13.358100
344  2 -0.3379  4.592760  4.755020 13.512400
345  2 -0.3600  6.614100  8.600560 13.382800
346  2 -0.3205  8.824520 12.176300 13.471300
347  2 -0.3391 10.893200 15.937300 13.452500
348  2 -0.3732 12.820200 19.572400 13.507400
349  2 -0.3892  6.440130  1.139550 13.378000
350  2 -0.3054  8.568300  4.894050 13.640000
351  2 -0.3204 10.734300  8.432250 13.578900
352  2 -0.4039 12.794700 12.423400 13.432800
353  2 -0.3215 15.059100 16.047200 13.480800
354  2 -0.3918 17.211000 19.563200 13.413600
355  2 -0.3272 10.454000  1.269430 13.489600
356  2 -0.3291 12.516400  4.786830 13.401800
357  2 -0.2920 15.150900  8.334150 13.692300
358  2 -0.3531  0.222088 12.103400 13.591900
359  2 -0.3503 15.076900  1.128510 13.531500
360  2 -0.3480 17.042300  4.500770 13.264900

