Generated by pymatgen.io.lammps.data.LammpsData

320  atoms

  2  atom types

0.00000000 19.74449000  xlo xhi
0.00000000 19.74449000  ylo yhi
0.00000000 27.37078800  zlo zhi

Masses

1  208.9804
2   78.9600

Atoms

1    1  1.00000  0.00000000  0.00000000  3.33793602
2    1  1.00000  0.00000000  0.00000000 17.02333002
3    1  1.00000  0.00000000  9.87224500  3.33793602
4    1  1.00000  0.00000000  9.87224500 17.02333002
5    1  1.00000  9.87224500  0.00000000  3.33793602
6    1  1.00000  9.87224500  0.00000000 17.02333002
7    1  1.00000  9.87224500  9.87224500  3.33793602
8    1  1.00000  9.87224500  9.87224500 17.02333002
9    1  1.00000  4.93612250  4.93612250 10.18063302
10   1  1.00000  4.93612250  4.93612250 23.86602702
11   1  1.00000  4.93612250 14.80836750 10.18063302
12   1  1.00000  4.93612250 14.80836750 23.86602702
13   1  1.00000 14.80836750  4.93612250 10.18063302
14   1  1.00000 14.80836750  4.93612250 23.86602702
15   1  1.00000 14.80836750 14.80836750 10.18063302
16   1  1.00000 14.80836750 14.80836750 23.86602702
17   1  1.00000  4.93612250  4.93612250  3.50476098
18   1  1.00000  4.93612250  4.93612250 17.19015498
19   1  1.00000  4.93612250 14.80836750  3.50476098
20   1  1.00000  4.93612250 14.80836750 17.19015498
21   1  1.00000 14.80836750  4.93612250  3.50476098
22   1  1.00000 14.80836750  4.93612250 17.19015498
23   1  1.00000 14.80836750 14.80836750  3.50476098
24   1  1.00000 14.80836750 14.80836750 17.19015498
25   1  1.00000  0.00000000  0.00000000 10.34745798
26   1  1.00000  0.00000000  0.00000000 24.03285198
27   1  1.00000  0.00000000  9.87224500 10.34745798
28   1  1.00000  0.00000000  9.87224500 24.03285198
29   1  1.00000  9.87224500  0.00000000 10.34745798
30   1  1.00000  9.87224500  0.00000000 24.03285198
31   1  1.00000  9.87224500  9.87224500 10.34745798
32   1  1.00000  9.87224500  9.87224500 24.03285198
33   1  1.00000  0.00000000  4.93612250  3.79361859
34   1  1.00000  0.00000000  4.93612250 17.47901259
35   1  1.00000  0.00000000 14.80836750  3.79361859
36   1  1.00000  0.00000000 14.80836750 17.47901259
37   1  1.00000  9.87224500  4.93612250  3.79361859
38   1  1.00000  9.87224500  4.93612250 17.47901259
39   1  1.00000  9.87224500 14.80836750  3.79361859
40   1  1.00000  9.87224500 14.80836750 17.47901259
41   1  1.00000  0.00000000  4.93612250 10.63631559
42   1  1.00000  0.00000000  4.93612250 24.32170959
43   1  1.00000  0.00000000 14.80836750 10.63631559
44   1  1.00000  0.00000000 14.80836750 24.32170959
45   1  1.00000  9.87224500  4.93612250 10.63631559
46   1  1.00000  9.87224500  4.93612250 24.32170959
47   1  1.00000  9.87224500 14.80836750 10.63631559
48   1  1.00000  9.87224500 14.80836750 24.32170959
49   1  1.00000  4.93612250  0.00000000  3.04907841
50   1  1.00000  4.93612250  0.00000000 16.73447241
51   1  1.00000  4.93612250  9.87224500  3.04907841
52   1  1.00000  4.93612250  9.87224500 16.73447241
53   1  1.00000 14.80836750  0.00000000  3.04907841
54   1  1.00000 14.80836750  0.00000000 16.73447241
55   1  1.00000 14.80836750  9.87224500  3.04907841
56   1  1.00000 14.80836750  9.87224500 16.73447241
57   1  1.00000  4.93612250  0.00000000  9.89177541
58   1  1.00000  4.93612250  0.00000000 23.57716941
59   1  1.00000  4.93612250  9.87224500  9.89177541
60   1  1.00000  4.93612250  9.87224500 23.57716941
61   1  1.00000 14.80836750  0.00000000  9.89177541
62   1  1.00000 14.80836750  0.00000000 23.57716941
63   1  1.00000 14.80836750  9.87224500  9.89177541
64   1  1.00000 14.80836750  9.87224500 23.57716941
65   1  1.00000  2.59722970  7.27501530  0.00000000
66   1  1.00000  2.59722970  7.27501530 13.68539400
67   1  1.00000  2.59722970 17.14726030 -0.00000000
68   1  1.00000  2.59722970 17.14726030 13.68539400
69   1  1.00000 12.46947470  7.27501530 -0.00000000
70   1  1.00000 12.46947470  7.27501530 13.68539400
71   1  1.00000 12.46947470 17.14726030  0.00000000
72   1  1.00000 12.46947470 17.14726030 13.68539400
73   1  1.00000  7.27501530  7.27501530  0.00000000
74   1  1.00000  7.27501530  7.27501530 13.68539400
75   1  1.00000  7.27501530 17.14726030  0.00000000
76   1  1.00000  7.27501530 17.14726030 13.68539400
77   1  1.00000 17.14726030  7.27501530  0.00000000
78   1  1.00000 17.14726030  7.27501530 13.68539400
79   1  1.00000 17.14726030 17.14726030  0.00000000
80   1  1.00000 17.14726030 17.14726030 13.68539400
81   1  1.00000  2.59722970  2.59722970  0.00000000
82   1  1.00000  2.59722970  2.59722970 13.68539400
83   1  1.00000  2.59722970 12.46947470 -0.00000000
84   1  1.00000  2.59722970 12.46947470 13.68539400
85   1  1.00000 12.46947470  2.59722970  0.00000000
86   1  1.00000 12.46947470  2.59722970 13.68539400
87   1  1.00000 12.46947470 12.46947470  0.00000000
88   1  1.00000 12.46947470 12.46947470 13.68539400
89   1  1.00000  7.27501530  2.59722970  0.00000000
90   1  1.00000  7.27501530  2.59722970 13.68539400
91   1  1.00000  7.27501530 12.46947470 -0.00000000
92   1  1.00000  7.27501530 12.46947470 13.68539400
93   1  1.00000 17.14726030  2.59722970  0.00000000
94   1  1.00000 17.14726030  2.59722970 13.68539400
95   1  1.00000 17.14726030 12.46947470  0.00000000
96   1  1.00000 17.14726030 12.46947470 13.68539400
97   1  1.00000  2.33889280  7.53335220  6.84269700
98   1  1.00000  2.33889280  7.53335220 20.52809100
99   1  1.00000  2.33889280 17.40559720  6.84269700
100  1  1.00000  2.33889280 17.40559720 20.52809100
101  1  1.00000 12.21113780  7.53335220  6.84269700
102  1  1.00000 12.21113780  7.53335220 20.52809100
103  1  1.00000 12.21113780 17.40559720  6.84269700
104  1  1.00000 12.21113780 17.40559720 20.52809100
105  1  1.00000  7.53335220  7.53335220  6.84269700
106  1  1.00000  7.53335220  7.53335220 20.52809100
107  1  1.00000  7.53335220 17.40559720  6.84269700
108  1  1.00000  7.53335220 17.40559720 20.52809100
109  1  1.00000 17.40559720  7.53335220  6.84269700
110  1  1.00000 17.40559720  7.53335220 20.52809100
111  1  1.00000 17.40559720 17.40559720  6.84269700
112  1  1.00000 17.40559720 17.40559720 20.52809100
113  1  1.00000  2.33889280  2.33889280  6.84269700
114  1  1.00000  2.33889280  2.33889280 20.52809100
115  1  1.00000  2.33889280 12.21113780  6.84269700
116  1  1.00000  2.33889280 12.21113780 20.52809100
117  1  1.00000 12.21113780  2.33889280  6.84269700
118  1  1.00000 12.21113780  2.33889280 20.52809100
119  1  1.00000 12.21113780 12.21113780  6.84269700
120  1  1.00000 12.21113780 12.21113780 20.52809100
121  1  1.00000  7.53335220  2.33889280  6.84269700
122  1  1.00000  7.53335220  2.33889280 20.52809100
123  1  1.00000  7.53335220 12.21113780  6.84269700
124  1  1.00000  7.53335220 12.21113780 20.52809100
125  1  1.00000 17.40559720  2.33889280  6.84269700
126  1  1.00000 17.40559720  2.33889280 20.52809100
127  1  1.00000 17.40559720 12.21113780  6.84269700
128  1  1.00000 17.40559720 12.21113780 20.52809100
129  2 -0.66700  7.24888346  4.93612250 11.81160354
130  2 -0.66700  7.24888346  4.93612250 25.49699754
131  2 -0.66700  7.24888346 14.80836750 11.81160354
132  2 -0.66700  7.24888346 14.80836750 25.49699754
133  2 -0.66700 17.12112846  4.93612250 11.81160354
134  2 -0.66700 17.12112846  4.93612250 25.49699754
135  2 -0.66700 17.12112846 14.80836750 11.81160354
136  2 -0.66700 17.12112846 14.80836750 25.49699754
137  2 -0.66700  2.62336154  4.93612250 11.81160354
138  2 -0.66700  2.62336154  4.93612250 25.49699754
139  2 -0.66700  2.62336154 14.80836750 11.81160354
140  2 -0.66700  2.62336154 14.80836750 25.49699754
141  2 -0.66700 12.49560654  4.93612250 11.81160354
142  2 -0.66700 12.49560654  4.93612250 25.49699754
143  2 -0.66700 12.49560654 14.80836750 11.81160354
144  2 -0.66700 12.49560654 14.80836750 25.49699754
145  2 -0.66700  0.00000000  2.31276096  4.96890654
146  2 -0.66700  0.00000000  2.31276096 18.65430054
147  2 -0.66700 19.74449000 12.18500596  4.96890654
148  2 -0.66700 19.74449000 12.18500596 18.65430054
149  2 -0.66700  9.87224500  2.31276096  4.96890654
150  2 -0.66700  9.87224500  2.31276096 18.65430054
151  2 -0.66700  9.87224500 12.18500596  4.96890654
152  2 -0.66700  9.87224500 12.18500596 18.65430054
153  2 -0.66700  0.00000000  7.55948404  4.96890654
154  2 -0.66700  0.00000000  7.55948404 18.65430054
155  2 -0.66700  0.00000000 17.43172904  4.96890654
156  2 -0.66700  0.00000000 17.43172904 18.65430054
157  2 -0.66700  9.87224500  7.55948404  4.96890654
158  2 -0.66700  9.87224500  7.55948404 18.65430054
159  2 -0.66700  9.87224500 17.43172904  4.96890654
160  2 -0.66700  9.87224500 17.43172904 18.65430054
161  2 -0.66700  7.55948404  0.00000000  8.71648746
162  2 -0.66700  7.55948404  0.00000000 22.40188146
163  2 -0.66700  7.55948404  9.87224500  8.71648746
164  2 -0.66700  7.55948404  9.87224500 22.40188146
165  2 -0.66700 17.43172904  0.00000000  8.71648746
166  2 -0.66700 17.43172904  0.00000000 22.40188146
167  2 -0.66700 17.43172904  9.87224500  8.71648746
168  2 -0.66700 17.43172904  9.87224500 22.40188146
169  2 -0.66700  2.31276096  0.00000000  8.71648746
170  2 -0.66700  2.31276096  0.00000000 22.40188146
171  2 -0.66700  2.31276096  9.87224500  8.71648746
172  2 -0.66700  2.31276096  9.87224500 22.40188146
173  2 -0.66700 12.18500596  0.00000000  8.71648746
174  2 -0.66700 12.18500596  0.00000000 22.40188146
175  2 -0.66700 12.18500596  9.87224500  8.71648746
176  2 -0.66700 12.18500596  9.87224500 22.40188146
177  2 -0.66700  4.93612250  2.62336154  1.87379046
178  2 -0.66700  4.93612250  2.62336154 15.55918446
179  2 -0.66700  4.93612250 12.49560654  1.87379046
180  2 -0.66700  4.93612250 12.49560654 15.55918446
181  2 -0.66700 14.80836750  2.62336154  1.87379046
182  2 -0.66700 14.80836750  2.62336154 15.55918446
183  2 -0.66700 14.80836750 12.49560654  1.87379046
184  2 -0.66700 14.80836750 12.49560654 15.55918446
185  2 -0.66700  4.93612250  7.24888346  1.87379046
186  2 -0.66700  4.93612250  7.24888346 15.55918446
187  2 -0.66700  4.93612250 17.12112846  1.87379046
188  2 -0.66700  4.93612250 17.12112846 15.55918446
189  2 -0.66700 14.80836750  7.24888346  1.87379046
190  2 -0.66700 14.80836750  7.24888346 15.55918446
191  2 -0.66700 14.80836750 17.12112846  1.87379046
192  2 -0.66700 14.80836750 17.12112846 15.55918446
193  2 -0.66700  2.76290572  4.93612250  5.45577812
194  2 -0.66700  2.76290572  4.93612250 19.14117212
195  2 -0.66700  2.76290572 14.80836750  5.45577812
196  2 -0.66700  2.76290572 14.80836750 19.14117212
197  2 -0.66700 12.63515072  4.93612250  5.45577812
198  2 -0.66700 12.63515072  4.93612250 19.14117212
199  2 -0.66700 12.63515072 14.80836750  5.45577812
200  2 -0.66700 12.63515072 14.80836750 19.14117212
201  2 -0.66700  7.10933928  4.93612250  5.45577812
202  2 -0.66700  7.10933928  4.93612250 19.14117212
203  2 -0.66700  7.10933928 14.80836750  5.45577812
204  2 -0.66700  7.10933928 14.80836750 19.14117212
205  2 -0.66700 16.98158428  4.93612250  5.45577812
206  2 -0.66700 16.98158428  4.93612250 19.14117212
207  2 -0.66700 16.98158428 14.80836750  5.45577812
208  2 -0.66700 16.98158428 14.80836750 19.14117212
209  2 -0.66700 19.74449000  7.69902822 12.29847512
210  2 -0.66700 19.74449000  7.69902822 25.98386912
211  2 -0.66700 19.74449000 17.57127322 12.29847512
212  2 -0.66700 19.74449000 17.57127322 25.98386912
213  2 -0.66700  9.87224500  7.69902822 12.29847512
214  2 -0.66700  9.87224500  7.69902822 25.98386912
215  2 -0.66700  9.87224500 17.57127322 12.29847512
216  2 -0.66700  9.87224500 17.57127322 25.98386912
217  2 -0.66700  0.00000000  2.17321678 12.29847512
218  2 -0.66700  0.00000000  2.17321678 25.98386912
219  2 -0.66700 19.74449000 12.04546178 12.29847512
220  2 -0.66700 19.74449000 12.04546178 25.98386912
221  2 -0.66700  9.87224500  2.17321678 12.29847512
222  2 -0.66700  9.87224500  2.17321678 25.98386912
223  2 -0.66700  9.87224500 12.04546178 12.29847512
224  2 -0.66700  9.87224500 12.04546178 25.98386912
225  2 -0.66700  2.17321678  0.00000000  1.38691888
226  2 -0.66700  2.17321678  0.00000000 15.07231288
227  2 -0.66700  2.17321678  9.87224500  1.38691888
228  2 -0.66700  2.17321678  9.87224500 15.07231288
229  2 -0.66700 12.04546178  0.00000000  1.38691888
230  2 -0.66700 12.04546178  0.00000000 15.07231288
231  2 -0.66700 12.04546178  9.87224500  1.38691888
232  2 -0.66700 12.04546178  9.87224500 15.07231288
233  2 -0.66700  7.69902822  0.00000000  1.38691888
234  2 -0.66700  7.69902822  0.00000000 15.07231288
235  2 -0.66700  7.69902822  9.87224500  1.38691888
236  2 -0.66700  7.69902822  9.87224500 15.07231288
237  2 -0.66700 17.57127322  0.00000000  1.38691888
238  2 -0.66700 17.57127322  0.00000000 15.07231288
239  2 -0.66700 17.57127322  9.87224500  1.38691888
240  2 -0.66700 17.57127322  9.87224500 15.07231288
241  2 -0.66700  4.93612250  7.10933928  8.22961588
242  2 -0.66700  4.93612250  7.10933928 21.91500988
243  2 -0.66700  4.93612250 16.98158428  8.22961588
244  2 -0.66700  4.93612250 16.98158428 21.91500988
245  2 -0.66700 14.80836750  7.10933928  8.22961588
246  2 -0.66700 14.80836750  7.10933928 21.91500988
247  2 -0.66700 14.80836750 16.98158428  8.22961588
248  2 -0.66700 14.80836750 16.98158428 21.91500988
249  2 -0.66700  4.93612250  2.76290572  8.22961588
250  2 -0.66700  4.93612250  2.76290572 21.91500988
251  2 -0.66700  4.93612250 12.63515072  8.22961588
252  2 -0.66700  4.93612250 12.63515072 21.91500988
253  2 -0.66700 14.80836750  2.76290572  8.22961588
254  2 -0.66700 14.80836750  2.76290572 21.91500988
255  2 -0.66700 14.80836750 12.63515072  8.22961588
256  2 -0.66700 14.80836750 12.63515072 21.91500988
257  2 -0.66700  7.86018275  4.93612250  1.76255558
258  2 -0.66700  7.86018275  4.93612250 15.44794958
259  2 -0.66700  7.86018275 14.80836750  1.76255558
260  2 -0.66700  7.86018275 14.80836750 15.44794958
261  2 -0.66700 17.73242775  4.93612250  1.76255558
262  2 -0.66700 17.73242775  4.93612250 15.44794958
263  2 -0.66700 17.73242775 14.80836750  1.76255558
264  2 -0.66700 17.73242775 14.80836750 15.44794958
265  2 -0.66700  2.01206225  4.93612250  1.76255558
266  2 -0.66700  2.01206225  4.93612250 15.44794958
267  2 -0.66700  2.01206225 14.80836750  1.76255558
268  2 -0.66700  2.01206225 14.80836750 15.44794958
269  2 -0.66700 11.88430725  4.93612250  1.76255558
270  2 -0.66700 11.88430725  4.93612250 15.44794958
271  2 -0.66700 11.88430725 14.80836750  1.76255558
272  2 -0.66700 11.88430725 14.80836750 15.44794958
273  2 -0.66700 19.74449000  2.92406025  8.60525258
274  2 -0.66700 19.74449000  2.92406025 22.29064658
275  2 -0.66700 19.74449000 12.79630525  8.60525258
276  2 -0.66700 19.74449000 12.79630525 22.29064658
277  2 -0.66700  9.87224500  2.92406025  8.60525258
278  2 -0.66700  9.87224500  2.92406025 22.29064658
279  2 -0.66700  9.87224500 12.79630525  8.60525258
280  2 -0.66700  9.87224500 12.79630525 22.29064658
281  2 -0.66700 19.74449000  6.94818475  8.60525258
282  2 -0.66700 19.74449000  6.94818475 22.29064658
283  2 -0.66700 19.74449000 16.82042975  8.60525258
284  2 -0.66700 19.74449000 16.82042975 22.29064658
285  2 -0.66700  9.87224500  6.94818475  8.60525258
286  2 -0.66700  9.87224500  6.94818475 22.29064658
287  2 -0.66700  9.87224500 16.82042975  8.60525258
288  2 -0.66700  9.87224500 16.82042975 22.29064658
289  2 -0.66700  6.94818475  0.00000000  5.08014142
290  2 -0.66700  6.94818475  0.00000000 18.76553542
291  2 -0.66700  6.94818475  9.87224500  5.08014142
292  2 -0.66700  6.94818475  9.87224500 18.76553542
293  2 -0.66700 16.82042975  0.00000000  5.08014142
294  2 -0.66700 16.82042975  0.00000000 18.76553542
295  2 -0.66700 16.82042975  9.87224500  5.08014142
296  2 -0.66700 16.82042975  9.87224500 18.76553542
297  2 -0.66700  2.92406025  0.00000000  5.08014142
298  2 -0.66700  2.92406025  0.00000000 18.76553542
299  2 -0.66700  2.92406025  9.87224500  5.08014142
300  2 -0.66700  2.92406025  9.87224500 18.76553542
301  2 -0.66700 12.79630525  0.00000000  5.08014142
302  2 -0.66700 12.79630525  0.00000000 18.76553542
303  2 -0.66700 12.79630525  9.87224500  5.08014142
304  2 -0.66700 12.79630525  9.87224500 18.76553542
305  2 -0.66700  4.93612250  2.01206225 11.92283842
306  2 -0.66700  4.93612250  2.01206225 25.60823242
307  2 -0.66700  4.93612250 11.88430725 11.92283842
308  2 -0.66700  4.93612250 11.88430725 25.60823242
309  2 -0.66700 14.80836750  2.01206225 11.92283842
310  2 -0.66700 14.80836750  2.01206225 25.60823242
311  2 -0.66700 14.80836750 11.88430725 11.92283842
312  2 -0.66700 14.80836750 11.88430725 25.60823242
313  2 -0.66700  4.93612250  7.86018275 11.92283842
314  2 -0.66700  4.93612250  7.86018275 25.60823242
315  2 -0.66700  4.93612250 17.73242775 11.92283842
316  2 -0.66700  4.93612250 17.73242775 25.60823242
317  2 -0.66700 14.80836750  7.86018275 11.92283842
318  2 -0.66700 14.80836750  7.86018275 25.60823242
319  2 -0.66700 14.80836750 17.73242775 11.92283842
320  2 -0.66700 14.80836750 17.73242775 25.60823242

