Generated by pymatgen.io.lammps.data.LammpsData

504  atoms

  2  atom types

0.000000 17.774667  xlo xhi
0.000000 21.986255  ylo yhi
0.000000 41.650458  zlo zhi

Masses

1  208.9804
2   78.9600

Atoms

1    1  0.7958  0.094720 14.615400 12.198000
2    1  0.8658  2.190260 18.608900 12.283100
3    1  0.8425 17.448900  7.538080 12.660000
4    1  0.7806  2.599180 10.973300 12.436800
5    1  0.8604  4.486560 15.308400 11.956000
6    1  0.7575  6.351630 19.117100 11.957900
7    1  0.8642  0.521681  0.369105 11.448100
8    1  0.7949  2.887040  3.897980 12.293700
9    1  0.8389  4.474410  7.409680 12.276200
10   1  0.8134  6.248450 11.396000 12.510000
11   1  0.8782  8.462810 14.705100 12.828900
12   1  0.8492 10.788600 18.322000 12.879100
13   1  0.8887  4.111680  0.407926 12.593800
14   1  0.8633  6.853170  4.179860 12.591800
15   1  0.9060  8.727620  7.674270 12.087600
16   1  0.9017 10.964800 11.022000 12.465800
17   1  0.8034 13.374500 14.820900 12.720900
18   1  0.7727 15.321500 18.501300 12.239300
19   1  0.8719  8.817500  0.169253 12.655700
20   1  0.7414 11.388700  4.268710 12.070600
21   1  0.8040 13.107500  7.667050 12.592300
22   1  0.8137 15.116900 11.188600 12.649400
23   1  0.8044 12.784500  0.190249 11.817800
24   1  0.8066 15.661600  3.640420 11.936100
25   1  0.8364  1.407120 13.214300  1.731240
26   1  0.7993  3.501340 16.811200  2.199270
27   1  0.7141  1.286270  5.936340  1.976920
28   1  0.8311  3.356110  9.521760  1.309510
29   1  0.7887  5.633960 13.344100  2.153070
30   1  0.8283  7.746050 16.713100  1.763380
31   1  0.7811  1.617700 20.385700  1.821890
32   1  0.8057  2.919660  2.147290  1.992950
33   1  0.8044  5.358500  6.737200  1.409900
34   1  0.8450  7.883680  9.784880  1.287320
35   1  0.8174  9.733360 13.330400  1.893830
36   1  0.8225 12.527300 16.831100  2.008640
37   1  0.8793  6.124870 20.322700  1.433440
38   1  0.7621  7.285120  2.318140  1.879780
39   1  0.8247  9.974660  5.995960  1.843200
40   1  0.8373 12.215200  9.292690  1.403450
41   1  0.8021 14.704300 13.563300  1.778930
42   1  0.8246 16.828100 17.126500  1.769890
43   1  0.8697 10.254700 20.492700  1.805370
44   1  0.9052 12.466000  2.031450  1.736890
45   1  0.8444 14.802100  5.682770  1.692300
46   1  0.8109 16.875000  9.290630  1.909620
47   1  0.7840 14.539600 20.404000  1.844830
48   1  0.8272 16.431000  2.080880  1.608530
49   1  0.1786  1.043090 13.756900  6.798670
50   1  0.1911  3.715510 15.066200  6.576810
51   1  0.1591  0.336137  7.779530  7.550150
52   1  0.1795  3.261190  9.083590  7.538550
53   1  0.1820  6.427320 13.423500  8.059510
54   1  0.1928  8.806400 18.505500  7.182120
55   1  0.2504  0.774055 19.896300  7.219700
56   1  0.1675 14.191700  1.486150  7.533790
57   1  0.3122  4.887360  7.063960  5.592010
58   1  0.1421  8.032880  8.096390  6.913760
59   1  0.1976  8.437210 15.473200  6.825090
60   1  0.2144 11.301300 17.055400  6.455320
61   1  0.2818  5.447050  0.853898  7.031450
62   1  0.1798  7.838390  2.817380  7.476880
63   1  0.2094 10.610500  6.845020  7.706820
64   1  0.1304 10.500300  9.929180  6.971250
65   1  0.1325 13.752200 14.000500  6.488580
66   1  0.1421 16.021400 15.125500  6.717510
67   1  0.1977  8.421800 21.612500  7.532240
68   1  0.3935 12.621400 22.074400  5.452870
69   1  0.1753 12.999600  8.361030  6.532190
70   1  0.1372 15.852600  9.581220  6.911560
71   1  0.1572 15.600600 20.754400  7.181390
72   1  0.3377 -0.512179  1.106410  6.778420
73   1  0.2296  3.480260 12.395400  7.716260
74   1  0.2263  5.880280 16.960200  7.769790
75   1  0.1819  2.307080  5.895910  7.046620
76   1  0.1532  5.806080 10.433600  7.353610
77   1  0.1945  8.293570 12.303000  6.187660
78   1  0.1892 11.258000 20.205400  7.548860
79   1  0.3632  2.321550 18.077400  5.447810
80   1  0.2187  4.859810  4.044510  6.915520
81   1  0.2074  7.031840  5.722960  7.854240
82   1  0.2963  8.360760 10.900400  8.850320
83   1  0.1552 10.647600 13.476500  7.515010
84   1  0.2422 13.853900 16.637400  8.218850
85   1  0.2054  6.282380 19.802200  7.143230
86   1  0.1853 10.439500  4.155820  6.287940
87   1  0.2345 12.775100  4.013860  8.126250
88   1  0.2663 13.277500 11.019400  5.537370
89   1  0.2181 16.124800 12.570800  8.147720
90   1  0.2078  1.107670 16.758700  7.721160
91   1  0.1641 13.611500 18.855600  6.351180
92   1  0.3515 14.193100  4.089080  5.354130
93   1  0.1515 15.454400  6.522030  7.005520
94   1  0.1901  0.828195 10.809300  6.764670
95   1  0.1556 16.382100 18.033000  6.560750
96   1  0.3136  0.048791  6.291330  5.102370
97   1  0.9040  1.340330 13.763900 27.067000
98   1  0.8074  3.545930 17.170400 26.155000
99   1  0.8332  1.483710  6.082160 26.175000
100  1  0.7853  3.371690 10.312200 26.169800
101  1  0.7650  5.440310 13.748800 26.089100
102  1  0.8291  8.425080 17.724800 26.222300
103  1  0.8886  1.687190 20.991400 26.096600
104  1  0.8517  4.161430  2.540980 26.199300
105  1  0.8003  5.657980  6.719880 25.643900
106  1  0.8636  8.091830 10.415500 26.564800
107  1  0.7439 10.506900 13.612000 26.602900
108  1  0.7737 13.031600 17.421400 26.681000
109  1  0.8665  6.141150 21.394900 26.215900
110  1  0.8669  8.303480  2.616970 25.900000
111  1  0.7566 10.854500  6.413910 26.093800
112  1  0.6662 12.985000 10.632900 25.606400
113  1  0.7920 14.996500 13.838000 27.321800
114  1  0.9102 17.389200 17.483600 26.801600
115  1  0.8187 10.641100 21.414600 25.536400
116  1  0.9091 12.610900  2.756780 26.469800
117  1  0.8769 15.150000  5.920130 26.382100
118  1  0.9435 16.968500 10.327300 26.636700
119  1  0.7640 15.367000 21.034800 25.629500
120  1  0.8374 16.920300  2.729840 25.877600
121  1  0.7554  2.006310 16.157800 15.446400
122  1  0.8052  4.158030 19.668300 15.903200
123  1  0.8629  2.219600  8.549890 15.492400
124  1  0.9378  4.178140 12.668100 15.418100
125  1  0.9080  6.313100 15.943700 15.459000
126  1  0.7646  8.448050 19.658200 15.749800
127  1  0.7932  1.872820  1.401210 15.694500
128  1  0.8655  4.378290  5.360250 15.438500
129  1  0.8337  6.730530  8.794210 15.839400
130  1  0.7498  8.587100 12.149800 15.855600
131  1  0.8148 10.917000 15.974300 15.698000
132  1  0.8708 13.055200 19.885500 15.187200
133  1  0.8595  6.414790  1.468880 15.816400
134  1  0.9050  9.000620  4.996160 15.893300
135  1  0.8174 11.004400  8.786160 15.403400
136  1  0.7891 13.273200 12.357800 15.773500
137  1  0.7814 15.797200 16.215400 15.485200
138  1  0.8247 17.437100 19.505200 15.219400
139  1  0.8740 11.259000  1.583440 15.414900
140  1  0.8153 12.899200  5.246850 15.376100
141  1  0.8239 15.205700  8.736400 15.723800
142  1  0.8549 -0.174320 12.467000 15.541900
143  1  0.8411 15.522900  1.615900 15.223300
144  1  0.7748 -0.230494  4.985070 15.711700
145  1  0.1861  2.464810 13.102400 20.837100
146  1  0.2316  4.132530 20.578700 21.350500
147  1  0.1912  1.650090  3.544680 19.704900
148  1  0.1802  4.925090 11.923100 21.309400
149  1  0.1932  7.523820 13.121700 21.265500
150  1  0.1379  8.414910 17.202600 20.837900
151  1  0.2661  1.173220 20.374200 19.957300
152  1  0.1894  4.504170  4.089140 21.056800
153  1  0.1416  6.911730  5.877550 20.789500
154  1  0.2324  7.168050 10.220600 20.227500
155  1  0.1817 10.484000 13.275900 20.603900
156  1  0.2198 13.086700 19.027100 22.054300
157  1  0.1555  7.112020 20.290600 20.972100
158  1  0.2034  8.554950  3.287730 20.625600
159  1  0.2190 10.216500  6.112580 20.276700
160  1  0.1548 12.778700 10.931800 21.559500
161  1  0.1909 15.458600 13.052200 20.770100
162  1  0.2220 17.308900 17.766300 20.422700
163  1  0.1787 12.333800 21.539600 20.620900
164  1  0.1839 13.354400  4.823550 20.822300
165  1  0.1645 15.657900  6.905490 20.378300
166  1  0.1962  0.160675 11.124900 20.408600
167  1  0.1864 15.451600 20.685300 20.981900
168  1  0.1679  0.141441  5.351970 21.789000
169  1  0.2041  2.595050 17.468800 21.120600
170  1  0.1950  6.068620  1.306830 20.661500
171  1  0.1668  2.881950 10.125500 21.416600
172  1  0.1836  4.862140 14.871000 21.796100
173  1  0.2761  5.785840 17.566700 22.382700
174  1  0.1504 10.017100 19.705200 21.383900
175  1  0.1949  3.079100  1.298260 20.965800
176  1  0.1808  2.635200  6.506500 20.467800
177  1  0.1470  5.358590  8.081250 20.672600
178  1  0.2795  9.284590 15.041000 22.800800
179  1  0.1559 11.333700 16.688000 20.624300
180  1  0.1895 14.609200  1.600910 21.371000
181  1  0.2263  9.545160 22.360100 19.935400
182  1  0.2450  8.351140  7.898770 22.105200
183  1  0.2361 10.323100  9.225110 20.529500
184  1  0.1845 12.847300 13.984600 22.187600
185  1  0.2094 14.556800 16.335000 21.008700
186  1  0.1551 -0.111637  1.256940 20.718800
187  1  0.2344 11.451900  2.263620 21.479200
188  1  0.2855 12.532100  7.130240 22.222200
189  1  0.1443 15.581000  9.741760 21.088700
190  1  0.2238  0.159022 15.057500 21.105400
191  1  0.1470 16.372200  3.918200 19.935900
192  1  0.1901  0.341061  8.469540 21.682100
193  1  0.8374  1.142710 15.546400 40.029600
194  1  0.8468  3.577380 19.371500 39.888200
195  1  0.8824  0.878102  8.232130 40.200200
196  1  0.8623  3.317880 12.093600 40.282100
197  1  0.8460  5.603090 15.680000 40.493300
198  1  0.8998  7.907430 19.372300 40.137900
199  1  0.7866  0.995112  0.658822 39.983100
200  1  0.8618  3.354540  4.601040 40.492400
201  1  0.8024  5.741800  8.685040 39.469100
202  1  0.7926  7.847700 11.956000 39.906500
203  1  0.8027 10.202000 15.850300 40.474100
204  1  0.8169 12.254200 19.308700 39.991000
205  1  0.8659  5.784590  1.226740 39.939400
206  1  0.8605  7.736860  4.407940 40.513500
207  1  0.8412  9.797630  8.040110 39.806900
208  1  0.7699 12.485700 11.974500 39.928800
209  1  0.8080 14.546700 15.698500 40.636400
210  1  0.9194 16.463200 19.747300 40.229800
211  1  0.8592  9.905600  1.025990 40.042300
212  1  0.8078 12.556600  4.680530 39.913600
213  1  0.7616 14.532100  8.333570 40.206400
214  1  0.9057 16.906900 11.590900 40.331200
215  1  0.8261 14.256400  0.754338 39.831300
216  1  0.8006 16.780200  4.619990 39.917900
217  1  0.8130 17.152200 15.102900 30.207100
218  1  0.7892  2.274620 18.944100 29.751200
219  1  0.8171 16.985200  7.257680 29.829900
220  1  0.7946  1.705860 10.895700 29.999700
221  1  0.8564  3.656290 14.992400 29.887200
222  1  0.7478  6.362040 19.005400 29.386400
223  1  0.8726  0.197621 22.088400 29.404400
224  1  0.8548  1.845010  3.756220 29.245300
225  1  0.7775  3.964410  7.609450 29.425900
226  1  0.9105  5.838260 11.287600 29.482200
227  1  0.8371  7.725620 15.463100 30.019400
228  1  0.8300 10.556900 19.040100 29.406900
229  1  0.8793  4.047190  0.564962 29.376200
230  1  0.9331  6.315940  4.147830 29.161800
231  1  0.8203  8.315720  7.774980 28.823300
232  1  0.8269 10.204200 11.167000 29.590500
233  1  0.7496 12.318200 15.249400 29.473200
234  1  0.7937 14.776400 18.954000 29.225200
235  1  0.8515  8.445890  0.628603 29.498800
236  1  0.8383 10.476500  4.093180 29.040500
237  1  0.8124 12.645300  7.788490 29.173300
238  1  0.8145 14.820600 11.061600 29.714800
239  1  0.8432 12.779400  0.533593 29.162300
240  1  0.8772 15.123400  3.904320 29.505500
241  1  0.2128  3.967810 14.556100 35.436900
242  1  0.2471  4.364160 19.783000 33.597600
243  1  0.1594  1.359680  7.155430 34.523500
244  1  0.2062  3.519520 11.359800 35.070000
245  1  0.1475  7.104980 15.813300 34.548800
246  1  0.2009  9.030930 21.006600 34.219800
247  1  0.1639  6.303910 22.023600 35.466100
248  1  0.1495  3.622110  5.206480 34.767500
249  1  0.1567  6.183980  7.554100 35.076800
250  1  0.1546  9.434990 13.709400 34.588300
251  1  0.1885 11.883500 15.113500 34.464800
252  1  0.2524 14.513700 20.544200 33.600700
253  1  0.2509  7.019420  2.019160 33.649500
254  1  0.1699  9.442110  4.566160 34.654400
255  1  0.1826  9.041640  7.410840 34.980500
256  1  0.2006 11.955400 12.037500 33.991900
257  1  0.2506 13.940600 13.237200 35.817900
258  1  0.1794  1.786550 19.304900 35.712900
259  1  0.1706 12.001300 21.907700 34.934000
260  1  0.2345 11.831100  6.212380 35.723200
261  1  0.2215 14.111000  7.555710 34.096000
262  1  0.2874 16.369900 11.982900 33.738800
263  1  0.1999 17.052000 21.084500 34.822800
264  1  0.3439 17.191000  4.431510 33.416300
265  1  0.2667 16.376400 15.166100 35.676800
266  1  0.1899  1.649610 16.692400 34.300100
267  1  0.2316 16.935100  8.716100 35.298500
268  1  0.2063  0.982515 10.451200 34.253800
269  1  0.1779  4.477120 17.526700 35.687600
270  1  0.1582  7.075160 19.044900 35.099800
271  1  0.1732  2.375250 22.270300 34.866500
272  1  0.2349  1.839880  3.113020 35.455200
273  1  0.1979  4.052780  8.344860 33.884300
274  1  0.2950  5.684760 13.054100 33.659400
275  1  0.1940  9.638080 16.983100 34.335600
276  1  0.1863 11.890200 18.840800 34.812900
277  1  0.2032  4.720830  2.516440 35.749000
278  1  0.1604  6.545940  4.820510 34.483200
279  1  0.1470  6.364610 10.628100 35.129700
280  1  0.2885  9.450500 11.080500 36.125500
281  1  0.2571 14.467900 17.538300 33.873800
282  1  0.1888 16.944200 17.895400 35.294500
283  1  0.1747  9.314130  1.826430 35.298500
284  1  0.1814 12.036700  3.196500 34.417900
285  1  0.1700 11.572900  8.922290 34.801500
286  1  0.1489 14.434200 10.378000 35.100800
287  1  0.2082 14.649700  1.574860 34.373800
288  1  0.2332 14.536900  4.246180 35.307900
289  2 -0.7398 16.981600 14.374800 41.805200
290  2 -0.6627  1.324290 18.380500 -0.059874
291  2 -0.8527 16.858800  7.129620  0.331105
292  2 -0.7945  1.220990 10.477200 41.444700
293  2 -0.8168  3.535840 14.656500 42.201800
294  2 -0.7782  5.785260 18.409500 41.249600
295  2 -0.8612 16.308700 21.754700  0.107219
296  2 -0.7367  0.863036  3.478260  0.249009
297  2 -0.7497  3.428930  7.465440 -0.520808
298  2 -0.7979  5.420310 10.567700 41.397800
299  2 -0.8110  7.784940 14.506600  0.047372
300  2 -0.7701 10.093500 18.287700  0.143264
301  2 -0.6985  3.307540 21.746700  0.031988
302  2 -0.7499  5.607140  3.407090  0.223233
303  2 -0.7708  7.993790  7.136380 -0.307341
304  2 -0.7277  9.860590 10.647900 -0.071544
305  2 -0.7648 12.097800 14.504800  0.545536
306  2 -0.7740 14.596000 18.137200  0.129005
307  2 -0.7749  7.969140 21.746400  0.165703
308  2 -0.6677 10.155900  3.303710 41.861400
309  2 -0.7358 12.437100  6.884980  0.373595
310  2 -0.7290 14.951800 10.557600 41.863200
311  2 -0.7703 12.256500 21.808700  0.073166
312  2 -0.7615 14.430300  3.515620 41.825400
313  2 -0.7162  1.206390 15.872600  3.394090
314  2 -0.6828  3.911120 19.046600  3.253660
315  2 -0.7367  1.514010  8.764590  3.575100
316  2 -0.5998  3.507760 12.094700  3.431160
317  2 -0.7075  6.053220 15.773700  3.746120
318  2 -0.6169  7.844310 19.178900  3.047520
319  2 -0.5878  1.220320  1.015600  3.815280
320  2 -0.7111  3.641180  5.032560  2.637530
321  2 -0.6016  5.474050  8.749930  3.348190
322  2 -0.6811  7.685160 11.807300  3.211240
323  2 -0.6646  9.952350 15.650000  3.369710
324  2 -0.7252 12.160300 19.176600  3.149750
325  2 -0.5974  5.238560  0.507266  3.225030
326  2 -0.6464  7.320330  4.969990  2.891790
327  2 -0.6281  9.813770  8.335350  3.200920
328  2 -0.6074 12.406200 11.789300  2.622280
329  2 -0.7308 14.728200 15.882700  3.411960
330  2 -0.7233 16.993400 19.257400  3.412270
331  2 -0.6707 10.633700  0.871336  3.630030
332  2 -0.6286 12.354600  4.537860  3.097220
333  2 -0.6931 14.441200  8.108560  3.258450
334  2 -0.6139 16.918200 12.158100  2.941720
335  2 -0.7345 14.217000  1.114610  3.547650
336  2 -0.7248 16.857100  4.233470  3.299830
337  2 -0.6838  2.206600 15.946700 10.639300
338  2 -0.6595  3.857360 20.146400 10.681700
339  2 -0.6303  1.847570  8.361680 11.211100
340  2 -0.7163  4.161600 12.831500 10.826600
341  2 -0.6969  6.746960 16.156000 10.836300
342  2 -0.6688  9.107120 19.542600 11.272500
343  2 -0.6272  2.767260  1.704470 10.663200
344  2 -0.7119  4.677460  5.171670 10.810400
345  2 -0.7421  6.203710  8.758260 10.881500
346  2 -0.6579  8.840580 12.472000 11.317100
347  2 -0.5227 11.173400 16.121300 10.998400
348  2 -0.6767 13.226100 19.878600 10.559500
349  2 -0.5836  6.602900  1.124250 11.508700
350  2 -0.6830  8.832250  5.365070 10.869200
351  2 -0.6903 10.767300  8.946360 10.926400
352  2 -0.6146 12.764000 12.331800 11.150900
353  2 -0.6884 15.617000 15.820400 11.016800
354  2 -0.6327  0.263402 19.898000 10.685600
355  2 -0.6651 10.497300  1.449500 10.517900
356  2 -0.7187 13.363700  5.675510 10.519200
357  2 -0.5864 15.230700  8.944860 11.209000
358  2 -0.5940  0.075016 11.803200 10.951100
359  2 -0.6186 15.297000  1.032650 11.076600
360  2 -0.5698 -0.360954  3.624220  9.983830
361  2 -0.7553  2.456480 13.867600 13.960300
362  2 -0.7808  4.431710 17.531900 13.837200
363  2 -0.7784  2.253610  6.261640 13.860100
364  2 -0.7614  4.501080  9.866020 14.277300
365  2 -0.8296  6.152690 13.504600 13.923100
366  2 -0.7740  8.654340 16.836900 14.204100
367  2 -0.7172  2.118110 21.215600 13.811100
368  2 -0.7705  4.791710  2.635230 14.147500
369  2 -0.7365  6.909330  6.450410 13.875500
370  2 -0.7750  8.719890  9.950840 13.769200
371  2 -0.7477 10.999700 13.614700 14.094000
372  2 -0.8060 12.932100 17.519700 14.210200
373  2 -0.7450  6.291740 20.944700 14.042000
374  2 -0.6855  9.066430  2.618610 14.059000
375  2 -0.8027 10.697600  6.388560 14.153900
376  2 -0.8930 13.216000 10.078700 14.175300
377  2 -0.8061 15.541400 13.891000 14.258600
378  2 -0.8188 -0.046090 17.551400 13.477500
379  2 -0.7879 11.054200 21.190600 14.022800
380  2 -0.7718 13.216800  2.875420 13.869800
381  2 -0.7788 15.285300  6.560490 14.035400
382  2 -0.7022 -0.055499  9.845450 14.008900
383  2 -0.6125 15.595000 21.178600 13.618800
384  2 -0.7214 -0.113012  2.961450 13.560000
385  2 -0.6859  0.038899 14.620100 16.965100
386  2 -0.6965  1.636420 18.811800 16.970300
387  2 -0.6603 -0.110707  7.290310 17.220000
388  2 -0.5856  2.271010 11.190400 16.733600
389  2 -0.5553  4.579780 14.963000 17.139300
390  2 -0.6331  6.477630 18.068800 17.290600
391  2 -0.6311 17.433100 -0.146372 16.700500
392  2 -0.7036  2.493420  4.130940 16.640800
393  2 -0.6575  4.358030  7.448820 17.017100
394  2 -0.5742  5.868440 11.538900 17.301900
395  2 -0.5838  8.209280 14.481700 17.144500
396  2 -0.6006 10.819800 18.564300 16.949600
397  2 -0.7086  3.762890 22.099800 17.168500
398  2 -0.6480  6.803700  3.901770 16.998700
399  2 -0.6661  8.777730  7.679920 16.958000
400  2 -0.6616 10.590900 10.966900 18.009900
401  2 -0.5710 13.589700 15.021600 17.091900
402  2 -0.5471 14.818600 18.476400 17.433800
403  2 -0.6601  8.741730 22.472900 16.765500
404  2 -0.6577 10.808000  4.043910 17.542000
405  2 -0.6268 12.930800  7.694690 17.161300
406  2 -0.6536 15.474300 11.325400 17.053700
407  2 -0.5940 13.168500  0.148501 16.776200
408  2 -0.6767 15.050700  3.827960 16.644700
409  2 -0.4814 17.075200 14.837400 25.550200
410  2 -0.6122  1.593800 18.421100 24.586900
411  2 -0.5910 16.916600  7.564120 25.079000
412  2 -0.6051  1.158950 11.406600 25.117300
413  2 -0.6667  2.862260 14.963300 24.794900
414  2 -0.6737  5.802260 18.825500 24.804900
415  2 -0.6848 17.479800  0.411123 24.316300
416  2 -0.6314  1.797760  3.650430 24.636000
417  2 -0.6934  3.107220  7.578360 24.617700
418  2 -0.6906  6.113060 11.551800 24.629400
419  2 -0.6356  7.882080 14.848300 25.283100
420  2 -0.6685 10.587800 18.254100 24.799700
421  2 -0.6144  3.975440 22.098100 24.663500
422  2 -0.6597  6.487260  3.857990 24.531200
423  2 -0.6220  8.352030  7.917110 24.994200
424  2 -0.6482 10.070900 10.843500 24.546100
425  2 -0.6932 12.459600 15.222000 25.288400
426  2 -0.6290 15.655900 18.130100 25.002600
427  2 -0.6988  8.299000  0.261700 24.257900
428  2 -0.6507 10.885000  3.910560 24.685200
429  2 -0.6770 13.358000  7.235980 24.891200
430  2 -0.6709 15.329500 11.900000 25.329500
431  2 -0.7148 12.947700  0.237558 24.648500
432  2 -0.6704 14.449800  3.571010 24.898500
433  2 -0.7980  1.629860 15.881700 28.444800
434  2 -0.8040  3.860960 20.267800 27.921000
435  2 -0.6724  1.345880  8.816990 27.642100
436  2 -0.7704  3.481280 12.391100 28.404900
437  2 -0.7036  5.392880 16.222700 27.810000
438  2 -0.7348  8.587970 20.294200 27.452800
439  2 -0.7555  1.768930  1.590450 27.401700
440  2 -0.7278  4.088500  5.317440 27.566300
441  2 -0.7559  5.853060  9.067160 27.566000
442  2 -0.6378  7.909970 12.651500 28.059600
443  2 -0.6586 10.045300 16.397300 28.076600
444  2 -0.7517 12.746200 20.080500 27.487300
445  2 -0.8284  6.210640  1.516870 27.697800
446  2 -0.7147  8.002170  5.306410 27.411200
447  2 -0.7553 10.543000  9.170920 27.705300
448  2 -0.7855 12.767800 12.483100 28.432800
449  2 -0.7859 15.462100 16.395000 28.411300
450  2 -0.7920 -0.067651 19.945300 27.715200
451  2 -0.8281 10.330100  1.805020 27.584200
452  2 -0.7860 12.923700  4.924890 27.859200
453  2 -0.6808 14.993000  8.842920 27.955000
454  2 -0.7690 17.282300 12.339700 28.464600
455  2 -0.6697 15.048300  1.600080 27.833100
456  2 -0.8144 17.176700  4.829820 27.821900
457  2 -0.6700  1.762530 13.572900 31.819200
458  2 -0.7273  4.229530 17.402300 31.300300
459  2 -0.7169  1.476500  5.751800 31.016200
460  2 -0.7394  3.993180 10.083100 31.044600
461  2 -0.6858  6.075090 13.426600 30.950200
462  2 -0.7174  8.279940 17.996900 30.940600
463  2 -0.7078  1.901290 21.187300 31.191600
464  2 -0.6779  4.190560  2.820480 30.309200
465  2 -0.6091  6.295000  6.451050 30.558100
466  2 -0.6300  8.078110  9.684230 30.763200
467  2 -0.6307  9.862660 13.958800 30.842400
468  2 -0.7097 12.682700 17.650400 30.673300
469  2 -0.6679  6.165040 21.822800 31.002400
470  2 -0.6650  8.125800  2.988560 30.672700
471  2 -0.6168 10.878200  6.032890 30.658400
472  2 -0.6755 12.441600 10.279600 31.071500
473  2 -0.7166 15.043800 14.416000 32.065500
474  2 -0.5819 -0.628213 18.062800 30.893200
475  2 -0.6935 10.760900 21.275500 30.952100
476  2 -0.6279 12.863600  2.587230 30.753400
477  2 -0.6931 14.974800  6.201440 31.100800
478  2 -0.7475 16.774100  9.670860 31.041700
479  2 -0.5676 15.359100 21.558000 30.558500
480  2 -0.6031 -0.263842  2.515270 30.770000
481  2 -0.6197  1.019400 13.164200 38.971400
482  2 -0.6629  3.350020 16.755900 38.861200
483  2 -0.5967  1.266610  5.274680 38.675400
484  2 -0.5524  2.856120  9.691080 38.531200
485  2 -0.6552  5.044690 13.394900 38.874300
486  2 -0.6113  8.088590 16.918100 38.837300
487  2 -0.7012  0.999866 20.454500 38.692800
488  2 -0.6340  3.201110  2.133880 38.833700
489  2 -0.5652  5.495800  5.636520 38.688400
490  2 -0.8017  7.951860  9.702260 38.464900
491  2 -0.6396 10.384800 13.498200 38.475400
492  2 -0.5628 13.145100 17.131700 38.684000
493  2 -0.6979  5.995810 20.862300 38.860200
494  2 -0.6824  7.551400  2.438220 38.558400
495  2 -0.6373  9.941390  5.340390 38.519600
496  2 -0.7090 11.782800  9.358170 38.504300
497  2 -0.6694 14.659300 13.181700 38.772400
498  2 -0.5299 16.435100 17.458200 39.186800
499  2 -0.6774  9.910380 20.834900 38.667700
500  2 -0.6650 12.368500  2.233520 38.674000
501  2 -0.6985 14.821400  6.294120 38.190500
502  2 -0.6438 16.818400  9.722970 38.464600
503  2 -0.6115 14.575100 20.042600 38.279200
504  2 -0.6436 16.055100  2.140600 38.099600

