Generated by pymatgen.io.lammps.data.LammpsData

504  atoms

  2  atom types

0.000000 17.774667  xlo xhi
0.000000 21.986255  ylo yhi
0.000000 41.650458  zlo zhi

Masses

1  208.9804
2   78.9600

Atoms

1    1  0.6069  8.963770  9.264540 16.615800
2    1  0.9295 16.943800  0.048871  7.728150
3    1  0.5957  8.794190 21.553200 15.208100
4    1  0.4289 16.901400 10.755900 12.329300
5    1  0.0462  2.918970  7.630410 12.881700
6    1  0.2713  4.127640 17.930500 15.015600
7    1  0.8480  9.214720  4.333240 12.686200
8    1  0.3857  0.412772 10.651800 15.384200
9    1  0.5095 13.577400 14.809300  9.342590
10   1  0.1911  6.037620 15.423300 13.997400
11   1  0.3377 15.264900 13.096300  4.836570
12   1  0.6811 16.147800 16.652600 17.468300
13   1  0.4654 17.090300  5.298420 13.796900
14   1  0.3004  3.072480  8.085520 16.471000
15   1  0.1334  7.013970 12.662500 14.521600
16   1  0.6189  7.275080  5.399470 15.750100
17   1  0.6962 13.426800 20.312600 12.298500
18   1  0.1385  2.111640 21.490300 12.469700
19   1  0.1300  8.175870 15.239900 15.401500
20   1  0.6397  8.240420  8.816650 19.704300
21   1  0.4652 10.464100  0.451001 26.883600
22   1  0.5486 13.935700 17.400800 12.493900
23   1  0.7076  9.672910  3.985130  8.764350
24   1  0.5539 10.093600  2.411490 17.624000
25   1  0.8027  1.314490 17.129300 37.689000
26   1  0.3040  0.792938 18.491100  4.093370
27   1  0.3493 16.864000  9.528430 39.693800
28   1  0.5963  7.429980  0.325621  2.224300
29   1  0.2823  3.655940 17.735100  4.089350
30   1  0.5050  2.306710 20.390200  9.118400
31   1  0.4821  5.204500 20.286400  2.764480
32   1  0.6045  2.133100 10.868000  1.105870
33   1  0.6096  9.210300  7.431700  1.710010
34   1  0.1615  5.715070  7.715770 10.328500
35   1  0.4243 14.815700 10.287800 37.096000
36   1  0.4631 16.275400 14.071400  2.215970
37   1  0.6040  1.368620 19.264200 32.247800
38   1  0.3180  2.277450  9.108430 39.707900
39   1  0.7496 12.581700 18.433000  8.905480
40   1  0.6931  8.907110  7.654650  8.381370
41   1  0.6549  7.497530 10.015300 41.162700
42   1  0.4186  3.980610 11.873600 37.709300
43   1  0.6348  8.712560  0.617924 39.712200
44   1  0.4840  0.205276  2.547730  0.333883
45   1  0.3845 14.016800 21.214900  2.982650
46   1  0.4274  0.944030 16.253100  1.760780
47   1  0.3305 15.180100 18.179400  4.209070
48   1  0.2941 14.469000  0.788107  0.508125
49   1  0.6316 -0.083602  7.365780  3.198000
50   1  0.1273  4.000260 10.684300 15.037000
51   1  0.0709  0.536305 15.100500  7.454180
52   1  0.1891  2.708000 10.509300  4.981150
53   1  0.7602 10.533200  9.065110 11.129900
54   1  0.4281  1.162900  0.976443  3.195280
55   1  0.3655  0.254043  9.275470  6.843830
56   1  0.7175 12.660200  9.866380 18.178800
57   1  0.1227  5.181610  5.561700  8.246560
58   1 -0.0093  3.836390 14.636600  7.204760
59   1  0.6141  3.929760 15.085800 -0.147371
60   1  0.3377 13.799900 19.554800  0.918517
61   1  0.7248  9.663850  2.315310  4.901490
62   1  0.7178 12.032500 19.091000  5.606410
63   1  0.7631 14.195700  7.725020  6.502750
64   1 -0.0416  4.268630  7.594830 37.470000
65   1  0.1714  5.242950 11.011600  7.186710
66   1  0.6175 13.373700 15.561900 40.234100
67   1  0.2771  4.654350 16.499400  9.462470
68   1  0.2081 17.099800 21.068800  1.304440
69   1  0.0022  1.940020 15.334900  4.779360
70   1  0.7941 15.354700  5.284200  1.528510
71   1  0.6346 10.475300  7.043580  5.107570
72   1  0.3078  0.022507 16.272700 13.389400
73   1  0.4908  6.996120  6.541750 38.912300
74   1  0.5717  5.982110 20.554700  7.609260
75   1 -0.0410  2.193720 11.223700 13.030000
76   1  0.4042  5.122270  1.111600  4.646530
77   1  0.7601 13.389000  6.512790 10.399400
78   1  0.1187  1.348930  9.430400 10.320200
79   1  0.0877  2.577140 14.016900 13.573600
80   1  0.7160 10.496800 14.646500 11.531000
81   1  0.6935  5.061500  7.586940  1.151560
82   1  0.6278 10.405000 13.411100  1.919930
83   1  0.5222  6.770890  7.069860  5.598250
84   1  0.5599 10.360900  9.499910  3.294510
85   1  0.7903 16.190200  3.690660  5.283950
86   1  0.7513  3.981930  1.970160 40.444200
87   1  0.5961  4.457550  4.362380  2.941030
88   1  0.0210  2.557210 12.091600  8.101670
89   1  0.4651 -0.237743 20.134500 10.478200
90   1  0.0083  4.453640 10.442600 10.290200
91   1  0.7511  2.682670 17.080800 18.745800
92   1  0.8688 13.836100  1.838660  9.778180
93   1  0.2743  0.067930 11.281100  4.058290
94   1  0.6714 14.881900  9.532910  2.976720
95   1  0.6272  9.934270 13.197300  5.609500
96   1  0.3881  2.977990 20.645400  4.735610
97   1  0.5702  7.227380 12.654600 23.883000
98   1  0.5484  7.310190 18.858700 22.580600
99   1  0.1631  2.738980  6.357140 20.112500
100  1  0.8417  1.819890 11.870800 18.591100
101  1  0.4361  1.569060 12.389500 35.397200
102  1  0.4079  4.508960  4.318570 21.918200
103  1  0.5956  3.274550 19.807800 21.517000
104  1  0.0876  1.979680  5.026800 12.195100
105  1  0.5337  4.964830 21.511900 28.644400
106  1  0.3731  9.829150  4.820560 33.367300
107  1  0.5198 13.320400 10.021700 25.233600
108  1  0.6189  7.070570  8.035710 30.106800
109  1  0.5803  6.785460 15.505200 26.504800
110  1  0.5156 10.839900  6.916640 20.931700
111  1  0.7593 11.217100  3.842990 27.838000
112  1  0.8460 14.988600 15.323700 29.783100
113  1  0.7781  1.184950 14.277600 27.639600
114  1  0.6995 13.786200 10.823600 29.607700
115  1  0.5426 13.343500 15.829800 21.215400
116  1  0.4342  8.551670 19.432900 28.292100
117  1  0.1592  3.376280  3.236390 31.969100
118  1  0.4903  0.008950  1.303710 21.026300
119  1  0.1510  9.140950 15.044600 18.361600
120  1  0.6480 11.663300 11.005900 22.580300
121  1  0.5873  7.817120 15.733900  6.423670
122  1  0.0308  3.946310  0.882269 14.615800
123  1 -0.0111  2.763680  6.191970  9.835530
124  1  0.0799  3.714430  4.074550 14.565600
125  1  0.2735  5.559380 21.373200 17.030000
126  1  0.5108  4.900320  0.391181 22.510700
127  1  0.1007  1.237600  5.135490 16.564700
128  1  0.3792 17.116200  2.824520 16.097400
129  1  0.4967 -0.185351  5.809680  9.923740
130  1  0.4901 10.502000 13.960100 20.947300
131  1  0.5314 15.161700  1.976670 23.957100
132  1  0.7683  9.116980  0.537728 10.658000
133  1  0.4175  2.346780  6.089910  5.579270
134  1  0.4801 13.055200 14.515600 18.036200
135  1  0.1003  1.198780  2.347070 13.476000
136  1  0.5605 10.285800 19.057600 13.998100
137  1  0.1625  2.583150 21.707000 17.367300
138  1  0.2123 15.119700 15.752100  6.783390
139  1  0.7225  3.607110 12.248400 25.006600
140  1  0.5815 11.417000 17.981900 18.634700
141  1  0.4363 15.332600 13.016700 21.070000
142  1  0.5048  2.250140  8.423690 22.448900
143  1 -0.0934  2.249210  2.289420 16.364900
144  1  0.4824 15.860200  7.172960 17.812000
145  1  0.8578 12.302700 11.924200 13.844600
146  1 -0.0194  3.011710 12.840300 10.869500
147  1  0.5472  7.683030  6.548830 23.214900
148  1  0.7968  5.596730 10.081600 19.627300
149  1  0.3149  6.179960 15.135000 19.724700
150  1  0.3641 16.277000  4.203850 22.384500
151  1  0.1484  1.613890 17.331200  9.046650
152  1  0.8566 12.694200  2.953340 14.291600
153  1  0.6152  8.107000 11.485900 27.100400
154  1  0.5575  5.465810  9.313380 23.630300
155  1  0.6706 12.107200 21.243200 16.961400
156  1  0.5594  7.000750 21.035000 25.234300
157  1  0.6689  8.952670 21.885900 20.186100
158  1  0.7750  0.451887 14.562300 22.868300
159  1  0.3061 -0.175201 13.413500 13.782300
160  1  0.7768  7.591970 18.164900  9.990980
161  1  0.2663  5.597190  2.192270 17.046900
162  1  0.8267  0.941252 20.735300 25.857100
163  1  0.2836  7.847420 17.237800 19.614200
164  1  0.4768 14.071200  7.173670 20.579800
165  1  0.5431  5.595860 15.602700 23.417700
166  1  0.3113 16.733800 15.849100 10.131800
167  1  0.3374  6.522180 12.869100 11.407400
168  1  0.4164  5.458860 20.088400 13.768400
169  1  0.7592  2.832070 17.525000 25.352100
170  1  0.6057  3.178490  6.226140 25.331000
171  1  0.4639  5.633060  5.839840 19.239000
172  1  0.4968 15.588700 12.033000 23.790200
173  1  0.2265  0.093151  6.286980 20.438600
174  1  0.1144  2.322880 18.911700 11.927500
175  1  0.3861  1.952690  0.722075 22.801900
176  1  0.5543  9.986220  8.823610 26.767600
177  1  0.8664  3.773900  9.400100 28.023300
178  1  0.7025  5.948120  4.156630 26.595800
179  1  0.1508  3.058040  1.159120 20.206800
180  1  0.3950  6.873580  9.015010 12.640600
181  1  0.7964 12.712000 18.995200 23.038100
182  1  0.5862  6.325760  2.212850 10.031600
183  1  0.6967 12.606900  7.031860 13.731300
184  1  0.1928  7.252440 13.222000 17.492900
185  1  0.2508  8.197170 18.296100 15.811900
186  1  0.0366  1.945580  3.886990 19.595100
187  1  0.4606 12.176000  5.226920 18.546200
188  1  0.5597 13.527100  2.137020 18.773200
189  1  0.5299 15.917300 12.695800 18.169900
190  1  0.8101  0.267101 10.139600 26.657800
191  1  0.3665  0.826196 19.649900 14.724300
192  1  0.8144 13.250600 11.384400  9.037250
193  1  0.6559 11.985900 14.570500 33.328100
194  1  0.5075  5.101770 12.285100  1.528240
195  1  0.6360 13.235400  0.640560 37.439700
196  1  0.3055  1.888450 22.067500 -0.161763
197  1 -0.0208  3.597140  8.644230  8.131190
198  1  0.5377 11.329300 12.463800 40.806700
199  1  0.6305  8.998130 19.253700 35.780700
200  1  0.5288 11.084400  1.416020  1.663980
201  1  0.7765 12.795200  0.783287  6.065160
202  1  0.3931  7.238590 11.954600  5.581360
203  1  0.6663  6.097570 20.087900 37.276300
204  1  0.4373 12.858200 15.094800  5.151440
205  1  0.5648 11.966900  8.560140 40.390400
206  1  0.6716 11.126300  4.990200  1.716970
207  1  0.7168  2.233830  5.593400  0.158447
208  1  0.6735 11.575200 17.149400 38.059800
209  1  0.6358  9.610730 16.816400 41.327800
210  1  0.0263 17.148300 15.378900  4.609220
211  1  0.7412  7.357400  3.276800  0.123231
212  1  0.3858  8.134180  2.817490 31.513400
213  1  0.5360 10.161500 18.547200 30.796600
214  1  0.2641 17.394700  9.387830 35.179900
215  1  0.3496 11.898900 20.893200 40.546000
216  1  0.6279 -0.033564  3.075690 31.651100
217  1  0.5636 17.518900 17.055300 34.573800
218  1  0.5999 16.996500  1.363550 27.730900
219  1  0.6498 -0.026207  4.377500 38.661400
220  1  0.4272  5.293190  4.316730 29.592900
221  1  0.1730  1.984830  8.482920 33.731500
222  1  0.5914  1.385250 18.369000 29.303700
223  1  0.7594 15.536300 21.620600 32.026800
224  1  0.4913 14.621300  5.154220 25.568400
225  1  0.2320 15.465300  7.510130 38.085500
226  1  0.3991  9.208810 15.179600 31.219300
227  1  0.5678  6.898910 16.186400 29.311100
228  1  0.2767  4.151750  4.259570 37.452400
229  1  0.4054  8.748810  1.355600 28.929800
230  1  0.0936  6.233940  5.190190 33.052600
231  1  0.6569  5.912460  1.179460 35.898300
232  1  0.8744 10.764800 14.011500 25.856300
233  1  0.3442  8.307430  9.289480 24.013400
234  1  0.3638 12.799800  7.250310 35.305100
235  1  0.5796  9.910120 18.495600 25.380500
236  1  0.5853 13.374200 10.566900 33.421700
237  1  0.6311 12.067200  1.905100 22.376800
238  1  0.5856 14.580800 13.129500 26.503500
239  1  0.7593 13.034700 17.656700 32.172100
240  1  0.6972 11.074200  5.564530 24.725100
241  1  0.6774 14.229100 17.346100 36.990300
242  1  0.7293 14.917300  3.156040 33.856400
243  1 -0.0551  4.375290  6.913120 34.355900
244  1  0.6286 14.344500 11.565000 41.533900
245  1  0.7827  7.207010 13.355200 37.399200
246  1  0.7387  3.467930 19.407000 41.049000
247  1  0.5878  5.987890 16.712900  1.860850
248  1  0.5371  1.966800  1.478860 34.408400
249  1  0.0462  2.284460  9.620440 36.444000
250  1  0.6391  9.674110 11.990100 33.583600
251  1  0.7895 13.033100  7.375830 29.798400
252  1  0.3018  4.514700 10.487800 34.514400
253  1  0.7265  9.985220  0.860433 35.419900
254  1  0.5375  6.518520 13.722900 32.959800
255  1  0.6752 11.683800 12.001300 36.358000
256  1  0.7935  1.513550 11.566800 30.376900
257  1  0.6668 15.944300  6.906380 32.704800
258  1  0.6956 12.331600  4.121820 36.896500
259  1  0.7659 15.729600 14.409800 36.752400
260  1  0.7425 12.134200  0.382831 31.457500
261  1  0.4373  7.351770 12.092200 30.726000
262  1  0.4637  0.067079  3.909610 25.498800
263  1  0.1397  1.994080  5.298950 35.861700
264  1  0.1188  4.406530  3.572590 34.745600
265  1  0.6663  2.684290 16.387500 31.264800
266  1  0.6733  0.929090 13.475200 40.261500
267  1  0.3645 -0.275180  6.881180 23.673000
268  1  0.7649  9.412550 18.428800  3.341140
269  1  0.1420  5.102330 14.499500  4.643200
270  1  0.8300  4.872860 16.619600 37.224200
271  1  0.4689  4.018820 22.021200 31.553200
272  1  0.6192 13.660100  1.009150 27.337900
273  1  0.6151  8.037950 16.993000 34.272000
274  1  0.6151 11.079000  7.739370 32.640800
275  1  0.6774 17.027900 13.049000 32.732800
276  1  0.6813  3.788750  1.431800 25.813800
277  1  0.3865  7.363450 21.811200 30.880800
278  1  0.6309 17.143000 19.260700 39.940600
279  1  0.1449  6.523180  6.357630 36.011300
280  1  0.0340  0.823188  7.433100 37.777500
281  1  0.7588  1.406110 20.530900 37.265900
282  1  0.7638 15.155300 20.654800 36.009000
283  1  0.6034  6.486640 20.738300 34.073700
284  1  0.8528 16.812000 17.689000 21.170700
285  1  0.4079  3.267370  6.881820 31.432000
286  1  0.4211  2.279850  3.469430  8.551160
287  1  0.7812 13.470600 18.683600 27.359800
288  1  0.4820  5.677660 13.109100 28.036100
289  2 -0.8669  0.674008 11.455000 37.811400
290  2 -0.4479 15.750300  4.242290  9.662200
291  2 -0.7231  4.575360  4.482360  0.204486
292  2 -0.7175 15.310200 11.942200 35.231800
293  2 -0.7439 14.021300 18.667100 39.235800
294  2 -0.8095 17.716200  6.632080  6.346420
295  2 -0.6043  6.316320  2.688900 39.283600
296  2 -0.8177  8.473500  5.365580  6.864760
297  2 -0.5568 14.232700 20.024600  7.130960
298  2 -0.5146 12.688900 12.201400  6.419670
299  2 -0.8305  4.281310 10.639900 40.907400
300  2 -0.7473 16.576300 22.204900  4.027850
301  2 -0.7204  3.443690 18.601800 38.113200
302  2 -0.7391 13.938300  8.588240  0.667568
303  2 -0.8303  8.565700  2.454130  2.638520
304  2 -0.4529  9.849130  4.857940 40.917800
305  2 -0.6870  3.254210 14.616800 38.718800
306  2 -0.6078 12.520800 19.835500 35.892100
307  2 -0.6954 13.494100 13.964000  0.980547
308  2 -0.5591  0.179084  1.612080  9.728660
309  2 -0.6972  5.974940  9.767580  3.509610
310  2 -0.7155  7.711090  7.273560 41.237800
311  2 -0.8015 11.632600 21.173000  3.963750
312  2 -0.3713 15.178700  2.640300 37.097700
313  2 -0.9671  2.595820 19.126200  1.827450
314  2 -0.6609 11.269800 18.429800 11.262000
315  2 -0.7216 14.421000 12.364700 38.452300
316  2 -0.6170 16.486800 21.622100 38.599100
317  2 -0.5918  5.681030 14.533300 35.622300
318  2 -0.5408  9.887320 17.573800  5.877870
319  2 -0.5849 11.815100  4.981420  4.077830
320  2 -0.5585  8.470200 21.013200  4.455540
321  2 -0.6163  9.620700  3.265270 36.814200
322  2 -0.5773 12.498600 11.373600  3.273240
323  2 -0.6191 15.454700 17.619800  0.267455
324  2 -0.6442 16.674900 18.006100  8.048680
325  2 -0.7706 12.592800 17.025000  3.221980
326  2 -0.5902  8.386290 18.940400  0.607010
327  2 -0.7316  9.100420  9.123030  5.948690
328  2 -0.4474 14.877600  0.991727 12.707100
329  2 -0.5864 13.323000 14.651700 36.507400
330  2 -0.7088  4.108400  0.336383  8.298640
331  2 -0.5156 12.525400  5.565020  7.887760
332  2 -0.5398 11.574300  0.485786  8.449870
333  2 -0.4248 10.749800 13.054600  9.118030
334  2 -0.8530  6.407590 17.623400  4.149370
335  2 -0.8372  9.891880  9.889450  0.703002
336  2 -0.5943 15.610100  3.770120 41.228300
337  2 -0.5891  7.794990 15.333700  9.326460
338  2 -0.5132 11.335500 21.840100 12.580000
339  2 -0.7084  6.239630  5.073500 12.479000
340  2 -0.4574 13.494700  6.059920 40.273500
341  2 -0.8737  4.264700  1.134310  1.978720
342  2 -0.4133  8.834230 20.304400  8.337670
343  2 -0.5719  0.953349  2.447660  6.204360
344  2 -0.5634 13.184800  9.858180 12.196700
345  2 -0.7056  1.370530 20.352200  6.716830
346  2 -0.4697 15.299600 19.854900 15.144000
347  2 -0.7465  0.954829  7.957810  0.703424
348  2 -0.6286 11.340400 16.236600  8.579500
349  2 -0.7124  7.894030 20.220200 13.123800
350  2 -0.4354  1.184710  1.670970 37.500600
351  2 -0.7159  3.339270  7.279290  3.373310
352  2 -0.5927 13.958900 13.028500 11.496500
353  2 -0.5462 16.591100 15.830100 39.019300
354  2 -0.7350 -0.299081 15.767600 19.907900
355  2 -0.5215 15.321600 21.707800  9.682210
356  2 -0.8115 16.488100  3.443040 19.637700
357  2 -0.6154 11.497800  7.226030 16.640900
358  2 -0.7753 15.153200 18.135100 10.417100
359  2 -0.5057 14.610200  2.439880  7.140900
360  2 -0.6691  8.106650  1.682000  8.185130
361  2 -0.8074 13.266200 11.853200 19.787100
362  2 -0.6804  5.409130 21.091800 19.640300
363  2 -0.5787 14.531300  5.199210 12.334900
364  2 -0.6393 16.376300 11.845900  9.312570
365  2 -0.6093 10.802400 11.748800 16.666300
366  2 -0.6984  8.621480  5.875910 25.667000
367  2 -0.6931  4.286020 11.809300 18.078800
368  2 -0.6519  0.735304 13.957100 16.727900
369  2 -0.7945 13.491300  4.668960 21.555100
370  2 -0.5552  7.835670 10.876400  9.073320
371  2 -0.5330 11.915900  8.641080  8.387280
372  2 -0.8029  5.820050 17.260900 11.746100
373  2 -0.7874  8.795730 14.591500  3.774620
374  2 -0.6355 14.593800  6.384150  3.788330
375  2 -0.5795  9.397690  8.248390 13.683100
376  2 -0.7656  9.556550  6.524320 10.737900
377  2 -0.5914  9.463020 11.340800 12.307400
378  2 -0.6201 14.861600 10.512800  5.704300
379  2 -0.6406 11.120200  3.157250 11.231000
380  2 -0.5078 14.396300 10.323700 15.936700
381  2 -0.6802 13.337300  7.801320 23.296100
382  2 -0.7401 16.316900  9.416050 24.633900
383  2 -0.5245 15.520700  8.067840  9.849180
384  2 -0.2234 15.923800 21.312400 18.949600
385  2 -0.3131 15.873400 21.517000 22.522400
386  2 -0.6730  7.290600  4.002620 18.299300
387  2 -0.9976  1.986570  4.081900 23.590700
388  2 -0.6000 14.401500  4.772940 15.981800
389  2 -0.7487 10.680700 16.946900 21.663600
390  2 -0.6285  5.075440 20.788100 11.140300
391  2 -0.5428 11.685400 14.574600 13.980900
392  2 -0.7521  2.531460  8.756780 25.290500
393  2 -0.6263  2.283110  9.157880 19.573300
394  2 -0.6194  8.073280 21.414800 22.600300
395  2 -0.4223  3.073680 14.639200 20.369900
396  2 -0.5973 14.366100 18.248500 19.897800
397  2 -0.9404  9.985870 20.157300 17.727700
398  2 -0.5562  7.770480  2.345400 13.689300
399  2 -0.7017  3.663050 15.442600 28.609000
400  2 -0.7985 17.623200  7.827590 14.993800
401  2 -0.5531 10.507400  4.873390 14.959700
402  2 -0.6757 12.583400 13.956100 23.245500
403  2 -0.5520 13.800000  1.241060 16.238000
404  2 -0.4630 13.327600 21.345100 20.999800
405  2 -0.9722  2.542800 13.539600  1.800440
406  2 -0.5834 15.269200 14.911400 15.304800
407  2 -0.3599  6.809170  1.900900 21.114500
408  2 -0.7171  5.279560 18.238800 19.688600
409  2 -0.5428  4.817290 11.920400 22.450300
410  2 -0.5844 16.930200 12.016800 28.659900
411  2 -0.6288  0.303458 12.698100 24.983800
412  2 -0.9483  6.174200  7.975250 21.411600
413  2 -0.3220  1.424830 11.634500 21.784000
414  2 -0.4700 12.254300 17.115600 25.147500
415  2 -0.6790 12.625800  7.196300 26.475500
416  2 -0.5077  6.340460  3.894220 23.848900
417  2 -0.5682 10.062000  4.171000 20.374600
418  2 -0.5050  5.421520 18.510900 28.038400
419  2 -0.7263  8.481060 15.194600 24.451300
420  2 -0.7648  0.364635  0.681142 31.175800
421  2 -0.7233 11.489900 16.704700 16.478700
422  2 -0.6387 12.285600 16.157800 30.045100
423  2 -0.3047  9.507900  2.527850 23.445900
424  2 -0.7749  1.488560 17.509000 15.528700
425  2 -0.6145 14.500000 13.165800 31.269100
426  2 -0.6818  1.815900 22.253500 27.817400
427  2 -0.7108 11.614700 20.753400 24.877700
428  2 -0.6103  8.420790  8.663180 32.570200
429  2 -0.7088 10.601100  1.324340 15.357600
430  2 -0.6851 12.412900 12.359100 27.489700
431  2 -0.6478  7.816090 11.499100 21.286300
432  2 -0.7537  5.673140 17.801500 24.855900
433  2 -0.8195 10.543800  9.540450 20.575900
434  2 -0.5163 16.540100 15.449800 27.054000
435  2 -0.6950  2.898100 15.139800 23.968300
436  2 -0.7107  3.876050 10.571700 30.592300
437  2 -0.6631  7.237610 19.013500 30.874200
438  2 -0.5345 15.458000 21.120900 29.231800
439  2 -0.6226 16.593000 10.317800 19.519900
440  2 -0.7115  3.954050 20.688700 25.137400
441  2 -0.7139  4.579880  6.897190 28.798400
442  2 -0.7215  2.774500 11.887500 27.502000
443  2 -0.5393  3.839540 18.981400 30.878300
444  2 -0.8410  6.332300  8.361760 17.535400
445  2 -1.0245  6.050170  1.456790 33.432600
446  2 -0.7420  8.049180  4.301300 29.259400
447  2 -0.9486  5.734010 10.368400 26.216300
448  2 -0.6299  7.527310  5.543490  2.876830
449  2 -0.8093  0.006364  1.249780 24.699500
450  2 -0.7438  0.406475  4.822990  2.140580
451  2 -0.5899  1.458960 19.349400 19.490000
452  2 -0.5937  9.696780 16.537400 27.775800
453  2 -0.4358  1.187380  8.862330 29.162400
454  2 -0.6052 13.959800  3.311020 28.648200
455  2 -0.7405 12.029400  9.639940 31.273600
456  2 -0.5080 15.834900  7.392030 30.133500
457  2 -0.5932  1.115440 19.637600 23.167400
458  2 -0.9234  8.063700 13.726300 28.464000
459  2 -0.7097  9.597900 20.956900 32.699700
460  2 -0.6861  0.042674 15.047000 30.509300
461  2 -0.5859 15.492000 17.679400 30.649100
462  2 -0.6033  2.677230 16.694300 35.194100
463  2 -0.6293 16.561500 10.248900 32.297100
464  2 -0.6981 15.671400 15.917000 22.858700
465  2 -0.6739  8.691590 13.725900 41.347700
466  2 -0.4620  9.124060 10.799600 38.209100
467  2 -0.4871  9.688570 10.285800 29.401200
468  2 -0.4968 10.281200 14.438800 38.389100
469  2 -0.8108 12.824000  3.226570 25.292900
470  2 -0.5034 16.814100  1.075920 34.641000
471  2 -0.8125 16.635600 11.616200  1.564830
472  2 -0.8358  9.934550 11.469300 24.896300
473  2 -0.6226 16.873300 19.995900 33.948100
474  2 -0.4185  5.309020 17.534500 33.146100
475  2 -0.7480 12.442600  2.326780 35.075800
476  2 -0.4338 14.862400 20.912600 25.735000
477  2 -0.8873  6.323130  1.151830 26.951600
478  2 -0.6510  2.987390  4.107170 27.114000
479  2 -0.5069  0.382813 18.074900 26.449800
480  2 -0.6352  3.355640 13.345300 32.704500
481  2 -0.8723  9.191800 14.524600 33.938000
482  2 -0.6202  3.433580 20.674500 34.160900
483  2 -0.7931 11.160400  9.538000 35.292000
484  2 -0.5342  8.223980 16.594900 36.793900
485  2 -0.6085  4.375650 22.146800 38.021200
486  2 -0.7945 17.359800 18.683200 36.881000
487  2 -0.6128  1.386630 17.219100 40.568100
488  2 -0.6861 11.407300  1.735340 40.394000
489  2 -0.5558  7.389440 11.368900 35.240400
490  2 -0.5991 11.527100 16.933500 34.562800
491  2 -0.6515  9.667370 18.861500 38.889200
492  2 -0.6108 13.315500  2.392290  3.389670
493  2 -0.5471  5.616270 21.056800 40.986100
494  2 -0.8192 14.865700  5.576210 35.201200
495  2 -0.7954 11.566600 20.514900 28.761300
496  2 -0.8509  1.933830  3.755640 39.832000
497  2 -0.6046 14.962800 15.179400 34.094100
498  2 -0.5332  5.575090 17.038400 40.510400
499  2 -0.8954  8.057460 21.671100 36.349600
500  2 -0.7310 11.198900  2.126950 29.891200
501  2 -0.6101 13.340800 20.306500 32.781300
502  2 -0.5663 13.694500  4.688560 31.779600
503  2 -0.8115  0.668488  5.252470 33.061200
504  2 -0.5077 10.668000  6.923220 29.779900

