Generated by pymatgen.io.lammps.data.LammpsData

320  atoms

  2  atom types

0.000000 16.864293  xlo xhi
0.000000 23.165087  ylo yhi
0.000000 24.472453  zlo zhi

Masses

1  208.9804
2   78.9600

Atoms

1    1  0.8883  0.849115 10.324200  6.453860
2    1  0.8662  1.217230  9.056880 22.746600
3    1  0.5922  1.856120 22.121300 12.791200
4    1  0.8655  1.323430  1.468710 19.242100
5    1  0.7783  3.721070  9.472580 14.803100
6    1  0.7807  6.424540 13.915100 21.201400
7    1  0.6240  6.145560 23.484900 10.944100
8    1  0.7634  1.366580 19.060200 18.763500
9    1  0.7595 10.281700 13.965800 11.223000
10   1  0.8530 10.549700 11.843700  1.401720
11   1  0.7852 10.230900 22.583800 11.744600
12   1  0.9029 12.814100 20.500300 23.792800
13   1  0.8645 14.662100 13.163300  7.736470
14   1  0.7813 11.617800  8.538880 24.362000
15   1  0.9055 14.594800 21.024500 10.759100
16   1  0.7076 15.829400 21.154900 21.539100
17   1  0.8114  6.095260 20.593700  1.722460
18   1  0.8815  1.668370  4.915700 11.776900
19   1  0.7976  5.762990 12.746000  4.647860
20   1  0.8257  4.800610  8.279300 10.752100
21   1  0.8284  8.666860 23.032700  3.406520
22   1  0.7975 13.492600  1.049800 22.175000
23   1  0.8279  9.375270  9.622500  4.722950
24   1  0.7909  7.228770 10.932900 17.007100
25   1  0.6353  8.558760  3.783270  2.226840
26   1  0.8302 10.978500 23.629300 15.735100
27   1  0.6892 14.817400 13.604700  3.908900
28   1  0.7768 10.328200 12.699400 15.832300
29   1  0.7259 -0.081355  1.530260 23.514600
30   1  0.7515  1.417350 18.773000 12.840100
31   1  0.6073  4.448100  9.584390  2.133590
32   1  0.8011  0.164498  8.331690 14.243800
33   1  0.7858  5.012840  4.658460  8.986500
34   1  0.8277  5.362130  2.630070 19.492700
35   1  0.7895  2.433250 13.346500  9.353820
36   1  0.7844  3.278270 16.896600 21.140200
37   1  0.8390  8.189270  6.282110  6.854720
38   1  0.7690  8.466600  8.217120 22.123500
39   1  0.8052  6.027740 16.906400 10.654800
40   1  0.8173  3.395520 19.967000 23.054200
41   1  0.7634 12.346200 21.437800  7.904390
42   1  0.8048  6.992400  7.386880 18.701200
43   1  0.8572  8.868240 19.874200 10.401600
44   1  0.6198  7.914290 17.180800 20.106600
45   1  0.7806  0.632706  7.957220  2.037250
46   1  0.8279 16.382200  4.597190 19.914700
47   1  0.8111 -0.125693 19.034800  7.090720
48   1  0.8057 14.046500 16.425600 17.282700
49   1  0.7347 14.695300 10.946700  1.904880
50   1  0.7867  1.116620  5.521500 16.649600
51   1  0.8041  3.554310 17.719300  7.892550
52   1  0.6768  4.143640 15.574600 17.225400
53   1  0.7585  5.468990  4.151590  3.346480
54   1  0.7215  5.575310  6.522690 15.827200
55   1  0.7133  6.902530 16.212200  0.825249
56   1  0.8429  2.819170 22.003900 16.579700
57   1  0.7672 10.651000  9.326270  8.884920
58   1  0.8215  3.375020 12.528300 19.166100
59   1  0.7812  9.209620 18.682100  3.318230
60   1  0.8891  7.981760 18.989000 15.444900
61   1  0.8116 14.975300  7.289530  4.884640
62   1  0.6318 11.297100  9.423170 18.397900
63   1  0.6913 14.385700 17.655700  3.470370
64   1  0.8287 10.094100 21.273500 18.376100
65   1  0.7695  2.121040  5.257060  6.701650
66   1  0.7844 13.262500  1.062090  0.991818
67   1  0.7442  6.232630 16.504700  5.017020
68   1  0.7435 16.520300  8.876150 18.607200
69   1  0.7542  8.557340  2.145200  8.033800
70   1  0.7983  4.163690  0.827952  0.330066
71   1  0.8628  8.533290 15.328200  8.090140
72   1  0.7181  4.341040 18.144000 15.534000
73   1  0.7860 14.716900  2.913770 14.029400
74   1  0.9445 10.737900  4.510420 20.527100
75   1  0.8751 12.969200 17.858300  6.638310
76   1  0.7303  9.981410 14.627900 19.413000
77   1  0.7731 10.827200  2.831540  5.689910
78   1  0.6675 14.049900  4.420040 17.129700
79   1  0.8620 15.769500 16.294700  9.958800
80   1  0.8616  2.323710 12.965700 15.445600
81   1  0.7744  4.572880  7.893080  6.378020
82   1  0.7730  3.375030  8.106440 19.328900
83   1  0.7098  2.555370 22.316900  8.627610
84   1  0.7937  4.193100  2.793640 15.747500
85   1  0.7457  7.018940 10.683600  7.606480
86   1  0.7417  4.653720 10.564200 22.415200
87   1  0.8220  8.191230 20.795200  7.052660
88   1  0.7913  6.189930 22.238800 21.349700
89   1  0.7633 12.381300  5.727540  7.022970
90   1  0.7053 14.304700 11.844100 15.601300
91   1  0.7717 13.003000  2.237330  8.950730
92   1  0.7598 14.481800  0.047866 18.464600
93   1  0.7888  0.899405 12.602300  2.042380
94   1  0.7137 13.352200  7.114440 20.622200
95   1  0.8692  2.940250 19.379600  3.934110
96   1  0.8049 15.576400 20.416100 16.438700
97   1  0.8379 14.625500  5.613980 11.824300
98   1  0.6503  5.169350  7.233350  0.871785
99   1  0.7578  0.180043 11.210100 11.371600
100  1  0.6878 15.997500 17.016400 24.105100
101  1  0.8227  9.858360  9.305410 12.456700
102  1  0.8516  7.131050  4.336930 23.629000
103  1  0.6936  5.424640 21.011100 13.460300
104  1  0.7444  8.005020 19.515400 23.673300
105  1  0.5903 13.136300 11.652800 10.950700
106  1  0.7764 10.894600  6.651330  3.505370
107  1  0.8292  6.769430  0.156445 16.174300
108  1  0.5998 12.971300 15.374800  0.867326
109  1  0.7783 15.664400  7.975850  9.071640
110  1  0.7031 15.695000  5.746200 24.365100
111  1  0.8428 12.923700 16.041400 13.667900
112  1  0.8101 -0.189010 21.167000  2.566290
113  1  0.8348  3.005780  4.785420 22.552400
114  1  0.6022 13.961300  7.836080 15.604700
115  1  0.6598  6.870230 12.606900  1.284740
116  1  0.7755  3.066050 15.464100 12.134200
117  1  0.6797  1.219770  4.249530  2.019620
118  1  0.7825  7.626020  2.612620 13.418700
119  1  0.7931  3.367410 15.732700  1.732010
120  1  0.8137  6.459100 11.778000 12.433000
121  1  0.8441  8.908030  1.010360 22.847400
122  1  0.8431 10.192400  5.461400 16.510000
123  1  0.8141 10.565900 14.589400  5.051040
124  1  0.8082  7.778830 15.338300 13.423200
125  1  0.6711 11.722600  4.659380  0.410837
126  1  0.8887 10.742500  4.808400 10.878600
127  1  0.9328  1.251290 15.548700  5.235750
128  1  0.6368 15.179800 13.781000 12.546500
129  2 -0.4024 15.889100  2.582930 11.920000
130  2 -0.7234 15.844800  0.841136 20.599100
131  2 -0.6086  0.387074 16.544300  7.497830
132  2  0.0296 15.679000 11.521900 21.420500
133  2 -0.6538  8.321420  2.732080 10.436800
134  2 -0.7401  4.617870  4.517190  0.218060
135  2 -0.6307  7.676790 14.469500 10.682600
136  2 -0.4418  3.707210 13.483300 21.785100
137  2 -0.6333 13.677700  6.349350  9.504300
138  2 -0.4801  7.618440  4.916270 17.349400
139  2 -0.3735 12.404500 19.821200 10.332500
140  2 -0.0922 15.106400 16.077600 20.713100
141  2 -0.3774 12.174900  6.139210 12.774300
142  2 -0.6276  0.072971  3.939760 22.271700
143  2 -0.3507 12.634500 15.996000 10.364300
144  2 -0.4795 12.465200 12.189200 18.217400
145  2 -0.6575 10.544500  7.526730  5.807320
146  2 -0.5858 12.696200  3.247750 11.349200
147  2 -0.3215  3.350950  2.666880  4.237120
148  2 -0.6667  5.339370 20.641200 16.231900
149  2 -0.5965 10.877600  1.941660  2.981380
150  2 -0.3213  8.697140  5.693900 13.496500
151  2 -0.4889  9.486160 20.821000  1.238080
152  2 -0.1946 10.016500 19.801700 13.612300
153  2 -0.3972 14.046200  9.786910 20.228600
154  2 -0.5821  0.792757 13.730100 13.060000
155  2 -0.4839 14.283700 19.772600  5.507980
156  2 -0.5589  8.838570 21.933500 15.685200
157  2 -0.5763  3.366950 13.256800  3.293900
158  2 -0.9065 15.849900  6.353950 17.919000
159  2 -0.5827  0.429093 18.255100  4.470860
160  2 -0.3826 13.033400 18.181800 15.751000
161  2 -0.5956 -0.159754  7.663380 11.807500
162  2 -0.5580  5.121010 14.345500 24.347000
163  2 -0.3705  6.786090 21.523500  4.735630
164  2 -0.0083 12.884100 14.417300 21.445400
165  2 -0.4314  5.105310 11.461700  9.813310
166  2 -0.4601 14.431000  8.275720 23.607000
167  2 -0.3868  5.219240  0.953593  7.937790
168  2 -0.5336 15.231600 19.357400 18.950700
169  2 -0.5798 15.149100 10.752800  8.380630
170  2 -0.5648  8.342550 13.246400 18.005700
171  2 -0.5826  9.681590 23.243500  5.970420
172  2 -0.7612  0.093178 15.207400  3.004620
173  2 -0.4895  1.662410 16.466100 14.377100
174  2 -0.6430 10.848100  6.460880 22.489300
175  2 -0.3505 15.461200 20.541400 13.509400
176  2 -0.2310 12.048200 17.777100 19.907900
177  2 -0.7741  1.584050  6.609870 24.133300
178  2 -0.1931 11.533100 21.121100 13.529200
179  2 -0.3596  1.289370 15.148700 23.990100
180  2 -0.8169 16.371800 13.881300  9.657140
181  2 -0.5928  6.432760  2.035720 21.786000
182  2 -0.5613  8.845330  2.192840 15.658600
183  2 -0.4658 10.027700 11.550600  7.267620
184  2 -0.7452  5.465380  9.360670 17.912700
185  2 -0.1406 12.316600 21.281000  3.181620
186  2 -0.5151 12.873400 21.776800 16.712400
187  2 -0.5267  8.923380 17.255300  5.886430
188  2 -0.6475  5.736110 14.161600 18.737000
189  2 -0.6972 14.817700 22.289800 24.353600
190  2 -0.2679 13.689100  0.265067 13.834100
191  2 -0.5428 16.801000 12.835000  5.672790
192  2 -0.4791 15.498100 15.062200 15.291500
193  2 -0.7246  3.480520 16.721400  4.927110
194  2 -0.6209  3.894330  5.030900 17.128700
195  2 -0.3822  4.611520 22.783600  2.638450
196  2 -0.5506 16.317800  2.005820 17.314100
197  2 -0.6231  7.092950 14.009200  6.623650
198  2 -0.7520  2.053740  8.527630 16.775800
199  2 -0.2608  0.617845  1.358930  8.679700
200  2 -0.4050  0.374223 23.182600 14.903300
201  2 -0.3333 12.700900 12.244400  6.055740
202  2 -0.4425  5.166240  5.693970 20.224900
203  2 -0.4607 15.369400 21.697800  8.056560
204  2 -0.4878  9.051720 21.306400 22.147000
205  2 -0.5672 14.749800 15.526000  5.978390
206  2 -0.4980  2.791790  6.816190 13.214000
207  2 -0.7338 13.762400  3.170910 23.603900
208  2 -0.5024 12.814400 21.432200 21.256700
209  2 -0.8165 10.503500  4.148050  8.092310
210  2 -0.6461  1.082130 22.000500 18.911800
211  2 -0.6224  5.837650 10.116100  5.044320
212  2 -0.4647  1.396560 13.179100 17.893100
213  2 -0.5688  4.221700 20.502800 10.674700
214  2 -0.5238  0.771462 18.486000 22.204400
215  2 -0.6086  8.642630 11.075200 10.851300
216  2 -0.1718 11.284900 13.329900 21.339200
217  2 -0.5338 -0.341128 19.390700 10.561300
218  2 -0.4302  8.196650  5.446830 20.549700
219  2 -0.6068  1.327830  7.605870  6.152370
220  2 -0.0040 16.151700 13.135100 22.096800
221  2 -0.5042 13.293300  4.805880  3.949360
222  2 -0.4852 13.523500  3.416740 20.251100
223  2 -0.4943  2.190740 10.158700  3.383700
224  2 -0.7936 11.488100  6.224610 18.790900
225  2 -0.6080  7.025020  1.598840  0.581863
226  2 -0.5401  5.325060  4.111790 13.704100
227  2 -0.6300  6.064320 19.121100  3.702680
228  2 -0.7342  1.509580 19.812500 15.880400
229  2 -0.3652  8.203130  1.177510 18.639700
230  2 -0.5840  8.980280  7.953230 16.286200
231  2 -0.3911 10.053000 17.781200  0.772627
232  2 -0.5479  7.114910 18.802000 12.409100
233  2 -0.4063 12.182200  9.631250  3.584990
234  2 -0.7748 12.447200 13.350000 13.659100
235  2 -0.6167  8.079180 15.531800  3.176910
236  2 -0.4692  9.957970 15.403600 15.714900
237  2 -0.6730 12.844900  6.871010  1.715390
238  2 -0.5887 11.987600 10.041800 15.267900
239  2 -0.7140 12.267200 13.200100  2.859060
240  2 -0.5511  1.781550 16.371800 19.012700
241  2 -0.3882 16.252500  4.622380  7.890930
242  2 -0.5371  2.592020  1.961220 21.982100
243  2 -0.5586  1.380920 10.321800  9.504790
244  2 -0.3744  9.263880 13.951600 24.352200
245  2 -0.6196  3.048140  6.641510  9.602890
246  2 -0.7171  7.737650  6.427560  0.337133
247  2 -0.5549  3.022100 20.137100  6.449400
248  2 -0.6633  4.892060 18.327900  0.964907
249  2 -0.4997  8.952230  7.033610  9.743420
250  2 -0.6366  9.721820  3.605410 23.039300
251  2 -0.5626 10.469400 19.518600  7.661470
252  2 -0.5378 14.364300 19.588800  1.827970
253  2 -0.5203 14.376700  9.937920 13.119100
254  2 -0.6402  2.073000 10.048800 20.512600
255  2 -0.5015 14.360000 18.132700  8.637360
256  2 -0.3989 13.107200 17.665300 23.360300
257  2 -0.5245  7.317410  7.472650  4.407810
258  2 -0.7536 15.817800  6.063880 14.520500
259  2 -0.5162  1.485860 19.068200  1.665290
260  2 -0.5527  3.231390  3.240530 10.777400
261  2 -0.5295 15.871300  9.993450  4.163620
262  2 -0.6590  5.859640  9.277780 13.400400
263  2 -0.6165  4.602550  0.400807 18.049000
264  2 -0.7539  4.288270  0.210563 14.705400
265  2 -0.6040  8.250840 12.451400  3.858860
266  2 -0.6027  9.294880 12.458200 13.437100
267  2 -0.0428 15.761900  2.317160  4.832160
268  2 -0.7129  7.852950 22.826300 13.000500
269  2 -0.6226 16.726200 10.175500  0.793852
270  2 -0.3913 10.333500 16.400500 12.598700
271  2 -0.4972  0.435571  1.443850  1.911710
272  2 -0.4454  9.817840 18.853800 17.551300
273  2 -0.4219  1.286780  3.380340 14.678000
274  2 -0.6618  4.540290  8.087860 22.346700
275  2 -0.4795  2.848340 11.048200 12.502300
276  2 -0.6377  9.315960  9.615350  1.568280
277  2 -0.4409 11.762000  4.045240 14.566500
278  2 -0.1166 13.728400 22.755500  3.631610
279  2 -0.6518  4.564450 17.928200 13.034600
280  2 -0.6023 11.489800 17.258100  4.080520
281  2 -0.4829 12.267000  2.434870 17.701600
282  2 -0.5142 11.247800 22.773100 24.077300
283  2 -0.4495  9.092480 17.356700  9.660930
284  2 -0.4249 13.665000 12.244500 24.312400
285  2 -0.4829 13.125700  0.137626 11.049500
286  2 -0.5371  1.863190 21.895700 24.165000
287  2 -0.5739  2.453460 17.822300 10.280700
288  2 -0.4782  2.814670 11.560000 24.318800
289  2 -0.6312  5.346070  4.953080  6.597040
290  2 -0.7365  5.924880 21.931700 24.017900
291  2 -0.5950  4.555540 14.850200  9.574850
292  2 -0.5421  4.898950 14.305000 14.175400
293  2 -0.4455  7.272910  2.125220  4.304370
294  2 -0.3643 10.843800  1.047620 20.481200
295  2 -0.4516 11.966700 14.249400  8.461960
296  2 -0.6113  6.871520 16.738000 16.022400
297  2 -0.6690  9.018720  4.849340  4.950650
298  2 -0.5626  8.006130  9.639200 20.048700
299  2 -0.4506 13.039300  1.146360  6.725850
300  2 -0.1308 14.955300 14.560100 19.176600
301  2 -0.6400 -0.079337  6.007400  3.668950
302  2 -0.5468 -0.275131  7.409750 20.941100
303  2 -0.3798  3.687710 12.519700  6.825580
304  2 -0.5795  0.275216 11.129900 14.867400
305  2 -0.5940  3.541810  6.911600  3.420740
306  2 -0.5327  2.490410  3.859170 19.269600
307  2 -0.0427 16.590000  0.495376  5.774840
308  2 -0.6158  3.828020 19.371700 20.523700
309  2 -0.6811  6.297880  7.647920  8.529090
310  2 -0.5618  7.027580 12.125200 22.722800
311  2 -0.5114  6.170430 18.822100  8.359860
312  2 -0.6585  5.933990 17.636800 22.328800
313  2 -0.4990 12.036900  8.939900 11.102400
314  2 -0.5607  4.770230 12.351200 16.314100
315  2 -0.8005  8.997300 22.254600  9.546480
316  2 -0.4242  6.857840 20.658800 19.201200
317  2 -0.4470 13.088600  8.297400  6.984770
318  2 -0.3195 10.147200 10.591900 22.686700
319  2 -0.4072 15.204200 17.140800 12.767900
320  2 -0.3466  9.685210 16.749400 22.113000

