Generated by pymatgen.io.lammps.data.LammpsData

504  atoms

  2  atom types

0.000000 17.774667  xlo xhi
0.000000 21.986255  ylo yhi
0.000000 41.650458  zlo zhi

Masses

1  208.9804
2   78.9600

Atoms

1    1  0.4182  7.535750  9.121350 12.336200
2    1  0.4026 -0.180751 19.307800  5.459170
3    1  0.7632  9.884290 21.127200 15.149500
4    1  0.3539  0.392477 12.979700 10.783600
5    1  0.0776  4.299770  5.931530 12.694800
6    1  0.4473  3.574180 19.039000 12.527500
7    1  0.5195  8.222310  5.321210 10.784000
8    1  0.3634  2.559020 10.425400 16.173400
9    1  0.6578 13.753400 15.293700 11.354700
10   1  0.0575  3.066220 12.293500 13.583000
11   1  0.6595 14.195400 11.337500  5.996830
12   1  0.3412 15.016500 15.958000 15.191500
13   1  0.0900  2.191480  5.633360 14.568600
14   1  0.3681  4.608940  9.273590 17.875800
15   1  0.1172  5.311750 11.057200 14.704100
16   1  0.2565  6.197550  3.556280 12.953300
17   1  0.7649 15.551600 20.842500 12.570600
18   1  0.2523 17.419100  2.018990 14.619400
19   1  0.6794  9.963430 14.728600 14.539300
20   1  0.7431 10.686300  9.086020 19.098200
21   1  0.6831  9.739520  0.870465 26.672100
22   1  0.4362 11.890700 16.826800 15.787600
23   1  0.4428  9.309020  2.106990 10.484500
24   1  0.5316  9.635650  2.699680 17.507200
25   1  0.7128  0.839967 16.415300 36.611800
26   1  0.4036 15.172500 17.590600  3.942640
27   1  0.2848  1.223800  7.661810 39.929200
28   1  0.5648  9.019950 20.637200  3.781620
29   1  0.5668  4.992840 18.749700  5.580160
30   1  0.5727  2.314440 21.440400  7.226570
31   1  0.8044  6.571320  1.975430  4.919770
32   1  0.2288  4.148940  7.704930  0.390639
33   1  0.7301 12.445600  8.636270  2.367190
34   1  0.2088  2.507910  5.881150  7.602770
35   1  0.2664 16.400000  7.185480 37.488400
36   1  0.5554 16.902900 13.399100  1.116680
37   1  0.6930 16.600400 18.499300 29.513100
38   1 -0.0065  4.327690  7.253790 39.231800
39   1  0.6512 12.509800  0.751754  8.044260
40   1  0.2398  5.882400 11.330900  7.139390
41   1  0.1288  6.551330  8.891670 40.225500
42   1  0.7640  3.586850 12.859400 37.304200
43   1  0.3852  8.528760  0.898736 38.299700
44   1  0.3214 17.405000  3.108160 40.644800
45   1  0.5666 14.168300 19.821700  7.395310
46   1  0.3876  2.222850 18.026900  1.479430
47   1 -0.0269 17.574500 16.173500  5.228270
48   1  0.5544 14.852800  1.459840 -0.035268
49   1  0.3692  1.584960  8.486250  5.898920
50   1  0.3926  4.276340  6.279710 18.204600
51   1  0.3797  5.076970 10.325100  1.438810
52   1  0.2207  2.707020 11.300100  6.099810
53   1  0.6642 11.009300 10.424500 11.836600
54   1  0.5327  1.060530  0.757383  4.283640
55   1  0.3694 -0.058391 10.495200  5.226890
56   1  0.6594 15.305900 10.492500 18.387400
57   1  0.2095  2.920890  3.366940  9.057880
58   1  0.0465  0.178537 13.397000  5.345920
59   1  0.5346  2.560210 16.033100 41.508400
60   1  0.7195 12.220500 16.176300  0.517222
61   1  0.6751 12.104500  3.477750  5.419420
62   1  0.5338 11.997200 19.340100  4.779410
63   1  0.6494 15.175100  6.126480  7.465600
64   1 -0.0300  4.668980  6.979760 35.814600
65   1 -0.0164  5.551050 11.729500 11.776100
66   1  0.6360 15.756600 13.839100 35.013100
67   1  0.1374  3.335650 13.419800 10.907000
68   1  0.7970 14.604500 20.158200 -0.038597
69   1  0.3090  2.132230 15.359100  6.813710
70   1  0.5588 15.928800  6.716580  0.498753
71   1  0.4821 13.934100  6.251340  4.200300
72   1  0.5842 16.956000 16.265300 12.202700
73   1  0.2429  6.959910  5.701720 40.852400
74   1  0.2859  4.674230 21.402900  9.944670
75   1  0.1838  1.536510 10.235600 11.951600
76   1  0.7791  7.983920  6.950900  6.771180
77   1  0.7986 12.190300  4.924270 10.050200
78   1  0.3847  0.497401  7.373490 12.673200
79   1  0.5342  4.239560 15.473200 12.883100
80   1  0.5999 11.541900 14.003300 10.283100
81   1  0.6330  8.693110  7.959350  2.681830
82   1  0.8124  9.439670 15.839500  3.322760
83   1  0.3127  4.025860  4.686770  1.519970
84   1  0.7213 12.447100 13.319600  2.000260
85   1  0.4498  0.416722  4.138460  5.447000
86   1  0.2577  1.875940  3.068090  1.144500
87   1  0.3276  2.613070  3.173440  3.873560
88   1  0.1565  1.270930 10.018400  8.916360
89   1  0.7749 16.460700  0.818797  9.682680
90   1  0.1216  4.155380  8.363330  7.821300
91   1  0.5056  1.853530 18.188900 20.020800
92   1  0.7745 12.866500  1.346570 11.493100
93   1  0.3379  2.673570 13.588200  4.076460
94   1  0.7421 16.227800 10.123500  1.549810
95   1  0.4884  8.584910 10.413100  8.034580
96   1  0.2146 15.984600 17.568500  7.363170
97   1  0.5876  9.296090 12.333700 23.617800
98   1  0.8388  7.106920 17.543000 21.719500
99   1  0.1069  4.654980  4.673680 15.481000
100  1  0.5357  3.805640 12.346200 18.468600
101  1  0.5304  2.479030 13.238500 32.965000
102  1  0.4959  7.887040  6.163240 21.749200
103  1  0.4507  6.210880 21.713400 23.539500
104  1  0.3582 17.136200  4.419870 12.038000
105  1  0.7043  1.897270  1.375530 27.734300
106  1  0.2224  8.200030  4.061680 35.206100
107  1  0.6809 14.272700 10.865200 26.889200
108  1  0.1596  5.729070  9.210650 30.370200
109  1  0.7476  6.379210 14.369800 25.387000
110  1  0.5529 12.647700  6.469140 21.517700
111  1  0.6017 11.959300  2.396710 29.400900
112  1  0.6842 13.529100 15.094700 30.711900
113  1  0.8450  0.415523 15.818700 27.419300
114  1  0.4966 12.935000 10.808600 33.513600
115  1  0.5507 12.516800 18.729400 20.803100
116  1  0.6817  8.920320 21.363100 29.962300
117  1  0.5473  5.343230  3.784010 31.479600
118  1  0.4205 17.274500 21.171700 18.803600
119  1  0.6990 11.004000 15.572700 22.355600
120  1  0.4698 12.367100 11.774600 22.389800
121  1  0.7411  7.682670 14.168200  6.773000
122  1  0.0989  4.568390 21.891000 15.451100
123  1  0.0175  1.922070  5.075090 11.525000
124  1  0.0013  3.504610  2.923920 12.210800
125  1  0.2887  5.338000 20.479600 18.863600
126  1  0.4096  4.959550  2.672570 23.418500
127  1 -0.0818  2.332600  2.749390 15.383100
128  1  0.2625 -0.468510  4.731130 15.718200
129  1  0.7947 14.334800  7.969800 13.442400
130  1  0.6999 10.099500 13.076800 19.215700
131  1  0.5506 14.338400  1.708990 20.090800
132  1  0.5224  9.085160 21.475000  8.887570
133  1  0.4494  4.511120  4.712370  5.985850
134  1  0.4389 12.596200 14.128700 16.682300
135  1  0.2360  1.929330  0.390269 13.718600
136  1  0.8516 12.043000 19.720100 11.366400
137  1  0.1015  1.807780  0.278946 16.546800
138  1  0.2719 15.105900 14.065500  6.656760
139  1  0.6703 17.406500 10.078900 23.734600
140  1  0.5083 11.326300 21.552400 19.367000
141  1  0.6019 14.940600 13.403000 21.906500
142  1  0.5889  1.414980 10.200400 20.042800
143  1  0.0387  4.189290  1.412670 17.989200
144  1  0.2292 16.904300  7.432960 20.453600
145  1  0.6007 14.148400 11.655100 14.339000
146  1 -0.0913  4.140280 10.673200  9.573110
147  1  0.6418 10.529100  6.531700 23.896600
148  1  0.5075  7.167240  8.715600 19.309400
149  1  0.8013  6.167770 12.948600 21.653000
150  1  0.3725 16.096600  5.826360 22.506700
151  1  0.6329  5.317970 17.892900 10.216300
152  1  0.7694 13.901400  0.942698 15.032500
153  1  0.2800  6.984740 11.833600 31.296700
154  1  0.7488  6.513570  9.899120 26.966300
155  1  0.5797 13.559100 19.834300 15.996800
156  1  0.3516  5.393240  0.698148 25.953500
157  1  0.6173  9.241380  2.463300 20.831000
158  1  0.7038  1.782470 14.456600 23.205300
159  1  0.4673 -0.305040 13.744800 14.637100
160  1  0.8006  9.750130 16.967600  9.314480
161  1  0.2750  7.204450  0.717730 17.245400
162  1  0.2783  0.418758 19.988500 21.581300
163  1  0.6408  9.581640 17.575200 19.272400
164  1  0.2368 15.242100  4.920410 19.614500
165  1  0.3886  3.068480 12.944100 29.128400
166  1  0.2131 17.328900 15.349900  8.143940
167  1  0.5311  6.916990 14.299500 10.632000
168  1  0.4636  6.413410 20.902200 13.186100
169  1  0.6573  3.543490 18.397300 23.696200
170  1  0.6284  2.963620  5.547040 28.063000
171  1  0.5407  7.374530  5.839950 17.034600
172  1  0.5706 14.186600  9.282350 22.726700
173  1  0.2492  0.620132  5.791290 18.749500
174  1  0.6849  1.080270 19.456300 10.024100
175  1  0.1296  0.476516  1.214040 20.715600
176  1  0.8073 10.701200 11.075500 28.866300
177  1  0.4340  2.642100  9.846990 28.450500
178  1  0.6497  6.767520  5.785210 27.310500
179  1  0.1055  2.721000 21.709200 22.036600
180  1  0.0317  4.415200  9.203770 12.593100
181  1  0.6619 15.403500 17.397200 21.606300
182  1  0.1771  6.349640  2.741260  9.921310
183  1  0.7776 10.440300  7.026280 14.284900
184  1  0.6655  7.122010 13.538400 16.606900
185  1  0.6067  7.777440 18.305100 16.841600
186  1  0.0624  1.594820  2.967910 18.366400
187  1  0.3632 15.689500  6.774250 17.515200
188  1  0.6338 12.348000  5.030790 17.026400
189  1  0.6263  0.768871 14.353700 18.183300
190  1  0.7082 17.216300  8.572190 26.938100
191  1  0.6432 -0.049895 17.856600 14.973000
192  1  0.8027 14.977200  9.714050  9.560230
193  1  0.7315 11.172600 14.751800 33.861800
194  1  0.3016  6.106120 11.583300 40.926500
195  1  0.5889 12.848300  1.306280 38.875300
196  1  0.3343  1.876760  0.586302 40.805900
197  1  0.5205  5.051430  9.093090  5.023910
198  1  0.6407 11.229900 13.455300 40.801100
199  1  0.5249  8.584260 21.527200 35.026100
200  1  0.5883 11.800500 21.827300  2.300160
201  1  0.8008 15.030300  1.327950  4.878290
202  1  0.5784  7.990110 12.199200  2.751640
203  1  0.5283  8.217670 19.462000 38.346800
204  1  0.6134 11.783800 14.509300  6.533020
205  1  0.7961 11.372200  7.185910 40.730000
206  1  0.8844  8.657290  2.841170  1.518600
207  1  0.5072  0.514752  5.844770  2.491330
208  1  0.6204  9.499240 16.132400 39.750600
209  1  0.5715  9.038310 19.247300  0.827210
210  1  0.1147  1.062930 15.508400  2.532170
211  1  0.5523  4.921820  0.334897 41.761800
212  1  0.7001 10.488200  3.889140 32.720600
213  1  0.7217 10.153700 14.990400 29.203200
214  1  0.4777 15.902100 11.570800 32.788000
215  1  0.4031 10.786000 20.841500 39.594300
216  1  0.6925 17.052800  3.409800 30.981100
217  1  0.7243  1.128290 19.160300 34.581300
218  1  0.4926 14.984100  1.273620 28.605700
219  1  0.1905  0.351305  7.264110 34.747900
220  1  0.2961  4.340850  6.486710 30.199200
221  1  0.3008  2.734090  4.976620 34.807500
222  1  0.6927 -0.333751 19.815000 25.062800
223  1  0.7073 15.788400 20.747700 31.933300
224  1  0.5853 15.827900  4.809550 25.817900
225  1  0.2429  0.074183  4.938960 38.737700
226  1  0.5222  6.164540 14.361800 29.404000
227  1  0.5658  5.724490 19.474400 28.257300
228  1  0.2110  3.782780  2.987470 40.566000
229  1  0.5027  7.180410  2.458860 28.833200
230  1  0.0630  4.542590  6.968210 33.060400
231  1  0.4934  3.818310  0.813532 38.506500
232  1  0.5740 11.156400 13.823600 25.966600
233  1  0.7662  5.604650  8.470320 22.932700
234  1  0.4104 10.087100  8.446820 37.021700
235  1  0.8372 10.129800 18.842700 24.921800
236  1  0.3583 15.437500  7.777260 34.928700
237  1  0.8181 12.426400  3.088200 23.286700
238  1  0.7535 15.884700 13.783000 25.087000
239  1  0.6512 13.734000 17.529700 33.950700
240  1  0.6949 12.333800  8.222220 25.607300
241  1  0.8225 13.549000 17.363000 37.302200
242  1  0.6270 14.185100  3.835950 35.141600
243  1  0.0588  7.838310  6.714180 35.213900
244  1  0.7615 14.714600 10.112200 39.710800
245  1  0.6052  7.305460 13.208500 36.980600
246  1  0.6512  5.535150 18.993700  0.852982
247  1  0.4445  6.699600 13.970100  0.913965
248  1  0.5218 16.994400  4.195130 34.364500
249  1  0.2876  3.686300  9.311940 36.713900
250  1  0.4495  8.377600 10.992400 35.561300
251  1  0.6262 14.475100  5.877480 30.245200
252  1  0.1217  6.080670  9.273720 34.471900
253  1  0.3812 10.484600  1.955470 35.818400
254  1  0.6359  6.294530 14.562600 33.950700
255  1  0.8203 12.388600 11.610000 36.955900
256  1  0.5096 16.602700  8.309080 31.731800
257  1  0.4907 13.144100  6.220390 33.192100
258  1  0.5665 11.203300  4.340270 38.100900
259  1  0.7383 15.219700 14.285700 39.180600
260  1  0.6687 12.363300 19.269800 31.234000
261  1  0.6552  9.877710 12.122900 32.000700
262  1  0.4833  1.064120  4.523910 25.257300
263  1  0.2428  5.589680  4.164030 36.351500
264  1  0.1614  8.046850  3.837920 37.963000
265  1  0.7324  2.899560 17.300700 29.782200
266  1  0.5848  2.849730 12.099500 40.136500
267  1  0.6301  1.214320  6.881670 23.200300
268  1  0.7224  7.793570 19.042200  6.576380
269  1  0.4130  4.699210 16.235400  3.805280
270  1  0.6556  6.019880 16.546100 38.460000
271  1  0.8247  2.088060  0.932731 32.034000
272  1  0.8172 14.667000 21.919400 24.586900
273  1  0.7399  8.928460 17.610900 31.766900
274  1  0.3716 10.446800  8.560980 33.941100
275  1  0.6225 16.902600 16.804400 32.894000
276  1  0.3138  1.922910  1.867330 23.910800
277  1  0.6480  6.244330 20.154900 31.970200
278  1  0.7289 17.317000 19.973600 39.171200
279  1  0.0107  7.119890  6.820110 38.172400
280  1  0.0269  2.043460  6.596670 37.599800
281  1  0.7678  3.869080  0.351794 35.133700
282  1  0.7569 15.857100 22.005000 37.016500
283  1  0.7026  5.646610 18.110400 35.296700
284  1  0.4999 15.151700 17.096000 18.230400
285  1  0.2030  3.247080  9.746130 33.873000
286  1  0.4889 -0.518980  4.177430  9.077940
287  1  0.8321 14.104600 17.577900 25.366700
288  1  0.0024  3.949180 11.113500 31.110200
289  2 -0.5592 16.657700 11.051500 38.552200
290  2 -0.4860 14.623600  6.320900 10.290400
291  2 -1.0431  1.358710  5.368510 41.392100
292  2 -0.7614 14.300200 10.038500 35.878800
293  2 -0.7828 14.396300 20.751400 39.042800
294  2 -0.7643 17.442300  7.886810  9.307710
295  2 -0.5088  5.163530 19.915800 39.370000
296  2 -0.6928  6.472060  6.842980  4.107310
297  2 -0.6390 16.286600 21.684800  6.666760
298  2 -0.5683 10.365100 13.182400  3.750820
299  2 -0.8528  5.286190 11.155300 37.827900
300  2 -0.5540 17.127400 20.451000  3.150410
301  2 -0.5823  1.261740 14.514900 39.959100
302  2 -0.6966 13.785600  8.416290  0.054582
303  2 -0.6431  8.452980 -0.152588  1.215760
304  2 -0.7726  6.963580  2.385070 40.178000
305  2 -0.4880  1.073160 13.719400 35.654000
306  2 -0.4436 11.157200 15.925800 36.318600
307  2 -0.6231 12.723000 16.649700 39.494300
308  2 -0.7414  0.746302  2.050060  7.875210
309  2 -0.8040  4.712200 11.514300  4.474410
310  2 -0.6376  8.489900  9.935140  4.378890
311  2 -0.8273 12.978500  0.002430  5.579310
312  2 -0.5780 13.840700  4.033970 38.128700
313  2 -0.8055  2.342440 18.421100  7.352240
314  2 -0.7016 10.767800 19.715000  7.591100
315  2 -0.7017 14.357700 12.762300 41.521100
316  2 -0.6448 16.932200 21.134900  0.030086
317  2 -0.5943  4.065150 15.438500 35.551400
318  2 -0.6111 10.116000 16.395400  6.368090
319  2 -0.5774  9.789050  5.184170  0.556566
320  2 -0.4549  9.344800  2.017810  4.342370
321  2 -0.9300 11.246800  4.823180 35.182900
322  2 -0.7911 14.851200 14.409900  3.917910
323  2 -0.4602 14.902900 17.374000  0.597702
324  2 -0.7674 15.273700 12.492800  9.065810
325  2 -0.6769 11.909200 16.903300  3.539800
326  2 -0.7362  7.062090 18.359700  3.592340
327  2 -0.3180 11.377100 10.442800  4.332490
328  2 -0.7569 15.575000  1.702010 12.572600
329  2 -0.4912 10.654900 13.473200 37.948700
330  2 -0.8006  1.726370  0.289126 10.570900
331  2 -0.6010 10.876800  3.908650  7.768620
332  2 -0.6085 10.115200 21.889600 12.022900
333  2 -0.5462 11.691600 11.500300  8.165960
334  2 -0.6068  7.038860 17.173800  8.092100
335  2 -0.6469 10.077900  9.202740  0.343494
336  2 -0.5763 12.615000  2.250090  2.394520
337  2 -0.7897  9.263800 14.329400  8.785670
338  2 -0.7898 13.714200 21.191900  9.913810
339  2 -0.8384  6.379810  6.491270  9.114590
340  2 -0.4820 13.957100  5.004350 41.149500
341  2 -0.6795  5.979050  2.321920  2.404190
342  2 -0.7209  7.387380 21.637100  6.473520
343  2 -0.6365  4.485920 22.111500  5.350750
344  2 -0.5937 15.652700 10.073100 12.494700
345  2 -0.7106  0.819627 19.494500 12.853700
346  2 -0.6877 13.383700 17.640400 13.460900
347  2 -0.5339  1.841010  9.190050  3.285910
348  2 -0.6644 12.558100 17.568500  9.713700
349  2 -0.5931  6.811520 16.106300 12.335700
350  2 -0.7503  3.162420  2.544520 36.364400
351  2 -0.9732  2.459280  5.613400  4.622430
352  2 -0.4761  8.078690 18.691900 13.995600
353  2 -0.4797 16.046000 16.984900 39.031800
354  2 -0.5700  0.233394 17.372700 18.194800
355  2 -0.6443 14.358600  2.846400  9.391830
356  2 -0.7606 14.232800  3.213730 17.181100
357  2 -0.5654 11.463500 11.345100 17.432800
358  2 -0.6146 16.127200 18.493800 10.460900
359  2 -0.7429 15.596800  3.351500  6.308090
360  2 -0.4765  7.891580  4.339560  6.804950
361  2 -0.8427 13.501900  8.401310 19.494600
362  2 -0.8224  5.060480 19.519500 21.576500
363  2 -0.3905 13.281300  4.803000 13.918100
364  2 -0.6497 15.459100  8.882050  6.588010
365  2 -0.7772 12.758800 14.322300 13.671400
366  2 -0.5158  9.346220 10.320900 26.024100
367  2 -0.7024  6.535620 11.457000 18.415700
368  2 -0.7057  2.223520 15.032700 14.962900
369  2 -0.7371 15.446600  2.600300 22.508500
370  2 -0.6690  4.618080 14.822700  7.898680
371  2 -0.3775 12.269900  6.960330  8.355210
372  2 -0.3903  5.434630 15.998200 15.714900
373  2 -0.7038  7.124590 14.983400  3.969880
374  2 -0.7382 15.401400  8.150460  3.274400
375  2 -0.5152 10.363800  9.686830 14.572900
376  2 -0.5758  9.312480  8.427590  9.872240
377  2 -0.7127  9.683940 13.351100 12.299800
378  2 -0.5697 14.336100 11.184200  2.768670
379  2 -0.5916 11.197200  3.162190 12.150300
380  2 -0.6413 -0.023532 10.689700 16.233400
381  2 -0.9402 14.596200 11.519100 24.362900
382  2 -0.6410 15.060600  6.883400 27.227000
383  2 -0.6458 12.112100  8.005820 12.246100
384  2 -0.7297 16.409800 20.323000 16.293200
385  2 -0.7727 15.547800 19.452300 19.674500
386  2 -0.6967  7.327530  7.183260 15.012500
387  2 -0.7344  2.028660  4.431030 22.049800
388  2 -0.7679 16.244300  6.978110 14.746000
389  2 -0.7167 10.009800 17.991200 21.756700
390  2 -0.7239  7.182170 19.672000 10.791500
391  2 -0.7198  9.123920 15.695900 17.103400
392  2 -0.9852 16.413900  7.917260 23.993800
393  2 -0.5872  3.445220  7.520140 21.272700
394  2 -0.6184  9.292000  3.974550 23.725200
395  2 -0.5322  4.860060 15.843700 22.289100
396  2 -0.6965 15.255100 13.701900 18.292100
397  2 -0.5802  8.226720 20.905300 20.924400
398  2 -0.7724  7.533410  1.357880 14.474900
399  2 -0.6064  4.031370 15.148700 27.493000
400  2 -0.8602  2.275540  7.908950 17.280100
401  2 -0.5137  9.455410  4.702700 14.782900
402  2 -0.8939 11.653900 15.345600 20.077000
403  2 -0.7031 11.653700  0.639039 16.770100
404  2 -0.7488 12.145900  3.652240 20.249200
405  2 -0.7274  3.447290 13.111200  1.529240
406  2 -0.8036 15.790800 13.883400 12.613300
407  2 -0.7430  6.669880  3.601420 20.152900
408  2 -0.3926  4.780360 14.782800 18.822200
409  2 -0.5756  4.555180 10.523200 21.285900
410  2 -0.4738 13.838700 13.699600 27.928300
411  2 -0.5686  1.760130  8.884010 25.369900
412  2 -0.6396  6.500470 12.173600 24.194200
413  2 -0.7380 16.579700 11.066700 20.709900
414  2 -0.8175 13.061600 14.771600 24.466600
415  2 -0.4820 12.500100  8.938060 27.959900
416  2 -0.4336  4.539470  6.158160 24.896500
417  2 -0.7579  9.517520  6.273980 19.116700
418  2 -0.4832  1.558750 19.375700 28.904100
419  2 -0.5382  7.789540 14.738600 20.166300
420  2 -0.5749 17.427700  0.209093 29.810800
421  2 -0.9125 10.490000 19.315600 17.020800
422  2 -0.7706  8.623600 14.609900 31.826100
423  2 -0.5598  9.561660  3.527030 27.056600
424  2 -0.7021  1.756820 16.354400 10.358700
425  2 -0.6278 16.472100 13.930500 31.662300
426  2 -0.6935 -0.721675  1.968810 25.857000
427  2 -0.5116 10.944100  0.806499 22.423000
428  2 -0.5473  9.487880  9.657130 31.142300
429  2 -0.7836 13.324800 20.912500 13.615400
430  2 -0.7969 11.843000 13.094100 30.409600
431  2 -0.6455  8.960550 10.674900 21.279400
432  2 -0.4526  6.602590 18.730800 24.408400
433  2 -0.8562 11.605100  8.886070 22.764900
434  2 -0.5201 15.542700 16.575600 27.773400
435  2 -0.6392  0.654973 13.657300 25.484000
436  2 -0.6583  0.579109 10.383500 34.853600
437  2 -0.7407  8.077700 20.504900 27.335900
438  2 -0.5980 15.323700 20.234300 26.832600
439  2 -0.5847  2.238240 12.643300 21.146500
440  2 -0.6606  3.046910 20.762600 26.022900
441  2 -0.5029  7.341300  8.089880 25.042200
442  2 -0.5036 16.946200 11.332900 28.292100
443  2 -0.6575  4.075980 20.032900 33.619800
444  2 -0.3761  8.797220  9.687390 16.899500
445  2 -0.6337  9.033810  1.878390 30.794800
446  2 -0.2259  8.700400  7.771900 28.323200
447  2 -0.7560  7.849400 11.937100 28.467600
448  2 -0.4193 10.188500  5.646140  4.484980
449  2 -0.5431 12.466600  0.859792 25.559900
450  2 -0.7075 16.616500  2.090450  2.273770
451  2 -0.4345  2.597060 18.398900 15.932500
452  2 -0.5997  7.916390 16.047200 28.373200
453  2 -0.6472  0.651538  7.417630 29.652500
454  2 -0.6559 14.637400  2.964580 32.240400
455  2 -0.5113 12.519200  8.845420 31.304500
456  2 -0.6111  0.820013  3.756940 28.569000
457  2 -0.6431 16.892600 15.552400 20.862000
458  2 -0.6223  1.470230 15.098700 29.747900
459  2 -0.8075  8.733930 20.259100 32.360700
460  2 -0.6121  0.837765 20.196200 32.337500
461  2 -0.4836 10.938500 16.893500 26.613500
462  2 -0.5309  2.096430 16.350000 32.836700
463  2 -0.9897 16.043400  5.985770 32.641500
464  2 -0.6389 16.674900 16.981900 24.574800
465  2 -0.7429  4.682370 14.750400 39.798600
466  2 -0.4346 12.042200 10.683000 39.931900
467  2 -0.7404  4.409800  8.205120 27.486500
468  2 -0.9316  9.725930 15.183300  0.466542
469  2 -0.7463 13.244400  5.251800 24.290300
470  2 -0.4862 17.813700  1.392420 33.498700
471  2 -0.6038  0.706475 10.805100  0.585671
472  2 -0.7080  8.867250 14.975800 24.114500
473  2 -0.9560 14.681300 18.157400 31.606000
474  2 -0.6699  6.031570 17.192100 31.972700
475  2 -0.4726 11.835900  1.174750 31.981500
476  2 -0.7432 15.805400 19.935700 23.043100
477  2 -0.6528  4.350460  1.155490 30.329300
478  2 -0.8245  4.505290  3.265810 26.884200
479  2 -0.5563  2.188010 17.384400 25.549300
480  2 -0.8652  5.675660 12.252900 34.970400
481  2 -0.6608 13.859100 13.920600 36.622800
482  2 -0.6098  1.614450 19.579400 37.314200
483  2 -0.9246 10.962300 12.200300 34.483700
484  2 -0.6870  8.076110 17.315000 36.490400
485  2 -0.7396  6.515300 20.889000 36.620700
486  2 -0.5107 15.588300 19.873500 34.755900
487  2 -0.5291  2.125450 19.428100 40.682100
488  2 -0.7414 10.702400  1.699110 40.070500
489  2 -0.5832  9.213130 10.449600 38.607200
490  2 -0.8335 11.450000 16.700200 32.098300
491  2 -0.4710 12.185400 20.401900 36.336500
492  2 -0.8040 12.027800 19.397200  0.905787
493  2 -0.6530  3.742360 20.561200  2.323710
494  2 -0.5697 12.634000  6.932900 37.740000
495  2 -0.5666 12.647500 19.153400 23.837100
496  2 -0.6542 -0.112606  1.764160 36.841400
497  2 -0.8074 16.109900 16.807000 35.484600
498  2 -0.7953  7.301800 17.591600 40.927400
499  2 -0.6856  5.940400  2.344200 33.869100
500  2 -0.6251 11.217500 21.253400 28.462600
501  2 -0.5036 13.557300  1.206900 35.803000
502  2 -0.3746 11.758500  5.537250 29.785400
503  2 -0.6209  2.354340  4.304170 31.517400
504  2 -0.5500  8.337780  5.721270 31.678700

