Generated by pymatgen.io.lammps.data.LammpsData

504  atoms

  2  atom types

0.000000 17.774667  xlo xhi
0.000000 21.986255  ylo yhi
0.000000 41.650458  zlo zhi

Masses

1  208.9804
2   78.9600

Atoms

1    1  0.7372 15.873400 14.976000 11.290400
2    1  0.5712  0.775457 19.116600 10.521500
3    1  0.8741 16.182000  7.871060 11.426800
4    1  0.8515  0.056968 11.386000 12.204600
5    1  0.8965  2.259670 14.407600 11.903400
6    1  0.8491  4.920750 18.295500 11.919500
7    1  0.6762 16.704000 21.607100 10.366200
8    1  0.6459  0.378071  3.806740 10.949900
9    1  0.9124  2.370090  7.715880 11.973000
10   1  0.9441  4.349590 10.708300 11.981900
11   1  0.8347  6.973870 14.371600 11.289400
12   1  0.7020  9.222550 18.716900 11.277300
13   1  0.6014  3.314610  0.284220 11.459800
14   1  0.6838  5.140570  3.457410 11.034600
15   1  0.7793  7.479830  7.589820 11.312800
16   1  0.7408  8.497780 11.063400 11.194500
17   1  0.8818 10.978500 14.728200 11.478600
18   1  0.7025 14.597600 18.106800 10.872100
19   1  0.7245  7.521300  0.635108 11.211400
20   1  0.7505  9.551650  3.621940 11.769500
21   1  0.5880 11.244900  6.804980 11.381600
22   1  0.8169 12.506200 11.244700 10.702700
23   1  0.6787 11.485800 21.818000 11.307300
24   1  0.4525 13.808200  4.701490 10.098300
25   1  0.7819  1.305620 13.570500  1.850700
26   1  0.9033  3.465430 17.140300  2.528430
27   1  0.8762  0.938449  6.198080  1.848290
28   1  0.6993  3.027810  9.721760  2.485230
29   1  0.8666  5.764340 13.006400  1.618110
30   1  0.7816  7.239820 17.309000  1.871310
31   1  0.6142  1.334410 20.988200  3.627850
32   1  0.7868  2.636680  2.997610  2.523380
33   1  0.7632  5.544650  6.942620  1.445560
34   1  0.8880  8.125050  9.994340  1.539650
35   1  0.6778  9.438700 14.092900  2.336110
36   1  0.7705 11.567000 16.888900  1.844460
37   1  0.7728  5.723900 21.196600  1.954510
38   1  0.7845  7.943470  3.240450  2.026860
39   1  0.7077  9.353500  6.297510  1.808630
40   1  0.8620 11.857000  9.305950  1.634540
41   1  0.6132 14.603400 13.398700  2.216360
42   1  0.6065 16.671400 16.186100  2.756010
43   1  0.9011  9.834300 20.921700  1.501740
44   1  0.6977 12.021500  2.677760  1.675990
45   1  0.8258 14.418700  6.024230  1.104600
46   1  0.7455 16.375400 10.171100  1.864000
47   1  0.6719 14.187900 20.928200  1.897340
48   1  0.8386 16.400800  2.779150  1.823870
49   1  0.2074  2.095500 12.842900  7.382960
50   1  0.3682  3.854530 14.854300  5.952550
51   1  0.3543  4.753850  7.895170  5.068720
52   1  0.2974  2.266410  9.679960  7.072330
53   1  0.1485  5.101660 12.493900  7.227270
54   1  0.3066  6.512940 17.500600  6.013270
55   1  0.4209  1.861040 20.799100  7.566830
56   1  0.3498 16.313500  3.504020  7.895720
57   1  0.4461  5.570860  5.827100  7.905690
58   1  0.3239  9.968270 11.707200  5.717280
59   1  0.2343 10.117300 14.750200  5.783360
60   1  0.4828 11.889500 17.422200  6.740270
61   1  0.3489  7.006570  0.100965  5.145990
62   1  0.4115  7.829530  2.560390  8.023170
63   1  0.5560 12.113700  7.293860  4.548730
64   1  0.1781 14.089700 11.912600  5.687900
65   1  0.2242 -0.170300 13.878700  5.918460
66   1  0.3314 10.909300 20.179900  6.267880
67   1  0.3358  5.342330 19.996400  7.192260
68   1  0.1172 10.198500  1.959880  6.559570
69   1  0.2164 14.111800  9.801550  7.312030
70   1  0.4710 16.078600  7.137010  4.968390
71   1  0.3845 12.042700  0.901063  4.583470
72   1  0.3732 12.497000  0.800222  7.701250
73   1  0.3092  6.214400 10.606000  5.085820
74   1  0.3625  1.663040 15.748100  7.888010
75   1  0.3488  4.861260  3.330160  6.290520
76   1  0.3039  7.063990 14.075900  5.162740
77   1  0.3399 12.326500 13.666600  7.595870
78   1  0.3076  7.907520 21.399800  7.946440
79   1  0.4871  2.421020 18.322300  5.898590
80   1  0.2711  2.280840  3.042810  8.329030
81   1  0.5220  7.550300  7.740600  5.911110
82   1  0.3631  7.500000 10.544000  7.968360
83   1  0.2427  7.605900 14.644200  7.952590
84   1  0.3288 14.775400 15.494400  6.527250
85   1  0.2974  3.687580 22.047800  5.453330
86   1  0.4461 10.379900  4.248170  5.108290
87   1  0.2795 11.522500  3.567510  8.805850
88   1  0.1592 17.147400 11.062800  6.733680
89   1  0.1987 15.436700 12.979100  8.108490
90   1  0.4290 16.696000 17.863700  8.319780
91   1  0.2892  8.900070 18.318400  7.754910
92   1  0.2986 13.874900  3.150230  5.560630
93   1  0.4297  0.550416  5.814340  8.354770
94   1  0.1464 14.651300  6.584770  7.531570
95   1  0.7878 15.666900 21.370900  6.151850
96   1  0.3379  0.883545  4.638390  5.844460
97   1  0.8471  2.393020 13.520600 24.638500
98   1  0.8447  4.749900 17.669800 26.527700
99   1  0.6807  2.204840  6.249110 26.000800
100  1  0.7193  4.818110 10.167100 26.288800
101  1  0.7368  6.048500 13.749100 25.776900
102  1  0.8363  9.137930 17.274400 26.411600
103  1  0.8411  2.501310 20.855500 26.060600
104  1  0.8037  4.299430  2.722110 25.915400
105  1  0.7214  6.755370  6.015700 25.531500
106  1  0.7656  8.845110 10.210200 26.239700
107  1  0.8318 10.534100 13.612400 25.685600
108  1  0.8584 12.950700 17.509600 25.761500
109  1  0.7689  6.369610 21.350100 25.587700
110  1  0.8021  8.675540  2.952110 25.768100
111  1  0.9060 10.881300  6.894750 26.102900
112  1  0.8989 12.829600 10.148800 25.594400
113  1  0.7518 14.921100 13.443600 25.699800
114  1  0.8405  0.224625 17.493100 25.918300
115  1  0.7855 11.206000 21.624000 25.893300
116  1  0.8070 13.106800  3.134640 26.010100
117  1  0.7543 15.179600  6.314850 26.164100
118  1  0.7471 -0.025708  9.874220 26.196600
119  1  0.8053 15.218500 21.404200 25.671000
120  1  0.7655 17.361900  2.804030 25.897400
121  1  0.8559 -0.013036 15.880900 14.787400
122  1  0.8603  2.262030 19.302800 14.522700
123  1  0.7664  0.004721  8.394120 14.981100
124  1  0.7835  2.641090 12.077800 15.275000
125  1  0.7281  4.214510 15.586000 14.797800
126  1  0.8205  7.079780 18.986100 14.679300
127  1  0.8741  0.622834  1.052890 14.029000
128  1  0.7756  2.193170  4.633430 15.269400
129  1  0.6911  5.319940  7.967310 15.332600
130  1  0.8486  6.763980 11.840000 14.626800
131  1  0.8631  8.693710 16.010100 14.576900
132  1  0.6755 11.882900 19.969100 14.685800
133  1  0.7663  5.015880  0.563609 14.794900
134  1  0.7407  7.542340  4.819550 15.024100
135  1  0.7760  9.571720  8.296180 14.749500
136  1  0.8647 10.998100 12.091700 14.335800
137  1  0.8930 13.512800 16.018000 14.276100
138  1  0.8365 15.600300 19.840700 14.821200
139  1  0.7877  9.907140  1.198170 14.611200
140  1  0.7824 12.033000  5.539000 14.876500
141  1  0.7228 13.593600  9.104610 14.921800
142  1  0.8032 15.781900 12.341200 15.109000
143  1  0.8323 13.659800  1.284530 13.894900
144  1  0.7495 16.152700  4.937940 14.622200
145  1  0.3636  2.622020  9.605400 22.090000
146  1  0.1919  3.884040 21.310300 19.623600
147  1  0.1594  2.993060  4.199140 20.111800
148  1  0.5801  1.462950  9.588820 18.744600
149  1  0.2496  5.986580 13.548000 20.864200
150  1  0.1001  6.275050 17.061700 20.028700
151  1  0.1529  1.143050 20.307400 20.124500
152  1  0.1588  6.194180  0.881148 20.772400
153  1  0.0234  6.392660  6.573500 19.748100
154  1  0.2798 10.053300 10.186100 21.572400
155  1  0.2399  9.022530 12.696400 19.491400
156  1  0.3406 11.226900 17.144600 18.365600
157  1  0.1810  6.439010 20.013500 20.970200
158  1  0.1595  6.101400  3.737980 18.185300
159  1  0.1703  8.961520  2.644160 20.526400
160  1  0.3132 10.826300 10.222500 18.808000
161  1  0.3664 13.210100 13.158800 18.228100
162  1  0.1075  1.496320 17.450900 20.840300
163  1  0.2047 12.906900 20.540200 21.654100
164  1  0.2431 14.751300  2.594330 21.305800
165  1  0.3894 15.291700  9.833710 19.457200
166  1  0.1206 14.320200 14.810900 20.827400
167  1  0.0528 15.507700 19.860400 20.484100
168  1  0.2381 -0.174218  3.265360 20.373300
169  1  0.2841  3.661330 16.918000 18.573600
170  1  0.3386  7.403050  0.805110 18.189200
171  1  0.3017 15.408800 11.929300 22.023000
172  1  0.2630  4.098180 16.016900 22.019400
173  1  0.0827  3.875090 18.841200 21.100700
174  1  0.2634 10.507000 18.541100 21.268500
175  1  0.2281  1.908380  1.252620 20.736600
176  1  0.0999  5.405830  4.412660 21.443500
177  1  0.2595  4.793080  7.827510 22.221400
178  1  0.1456  8.993660 16.025200 20.352700
179  1  0.0950 13.321600 18.015200 20.342500
180  1  0.2739 13.668600 21.366900 18.264900
181  1  0.1293 10.792700 20.158500 19.191700
182  1  0.2219  8.777910  8.181490 19.881100
183  1  0.2712  8.135930  5.871760 21.941600
184  1  0.0778 11.238700 14.619800 20.224300
185  1  0.2200 16.405700 17.324900 19.693300
186  1  0.0637 16.385600  0.700022 19.799500
187  1  0.1581 12.012400  1.183320 20.572400
188  1  0.3076  9.636590  5.365250 19.219700
189  1  0.0713 12.994400 11.092000 20.594700
190  1  0.2138 -0.225222 14.658200 21.194800
191  1  0.3898 15.026600  3.164650 18.542000
192  1  0.2010  2.455020  7.061130 20.574200
193  1  0.8143  1.080830 15.989900 40.474800
194  1  0.8531  3.069040 19.600100 40.730100
195  1  0.8335  1.558050  9.123740 39.594200
196  1  0.7674  3.648630 12.796400 39.829600
197  1  0.8795  5.266650 16.331800 40.394600
198  1  0.7860  7.456530 19.519900 40.418400
199  1  0.7722  1.436520  1.368140 40.218100
200  1  0.8564  3.242270  4.790510 40.006400
201  1  0.5767  5.367290  8.951210 39.438900
202  1  0.4244  7.542380 11.039200 39.682700
203  1  0.8349  9.759100 16.473800 40.066600
204  1  0.8191 12.267300 19.797000 40.711700
205  1  0.8068  5.642640  1.353200 40.414200
206  1  0.6840  7.266920  5.649140 39.743000
207  1  0.5947 10.209400  8.475360 39.424300
208  1  0.8769 12.128900 12.581200 40.352700
209  1  0.8296 14.425300 16.003700 40.612400
210  1  0.8453 17.145600 19.699400 40.921700
211  1  0.8618  9.639430  1.730500 40.168900
212  1  0.7798 11.884600  4.993620 40.048700
213  1  0.7012 14.871500  8.132790 39.289300
214  1  0.7618 16.249000 12.626000 40.729100
215  1  0.7527 14.152900  1.194190 39.924400
216  1  0.7018 16.374500  4.755000 40.109500
217  1  0.8581 17.308100 15.131600 29.554000
218  1  0.7678  2.188680 18.420000 29.330700
219  1  0.6743  0.281015  7.500310 28.999800
220  1  0.6232  2.525380 10.789300 30.281600
221  1  0.7917  4.638790 14.427600 28.600200
222  1  0.7956  6.992560 18.207900 29.164300
223  1  0.8520 17.245600  0.471040 29.474200
224  1  0.8952  2.068660  3.556450 29.620500
225  1  0.6796  4.636820  7.323500 29.493300
226  1  0.5978  6.704900 10.905600 29.582900
227  1  0.8092  9.225460 15.048100 29.250700
228  1  0.7504 10.748100 18.193800 29.640100
229  1  0.7977  4.870760 22.088100 29.269500
230  1  0.8181  6.415710  4.007900 28.777000
231  1  0.7925  9.090670  7.599100 29.646800
232  1  0.8575 11.036900 11.616300 29.502600
233  1  0.8648 13.075700 14.805300 29.034700
234  1  0.7776 15.284200 18.796100 29.570300
235  1  0.8479  9.518200 21.998300 29.302000
236  1  0.7644 10.959300  4.314870 29.699400
237  1  0.8094 13.099900  7.723110 29.250200
238  1  0.8871 15.415100 11.376100 29.351000
239  1  0.8345 13.094900 21.839500 29.333700
240  1  0.7631 14.853200  4.531570 29.645400
241  1  0.2251  5.846780 16.299500 34.502600
242  1  0.1196  5.453210  0.403265 33.649600
243  1  0.1851  1.396020  6.661800 33.803300
244  1  0.2906  2.687360 15.307800 33.801500
245  1  0.3335  6.765490 14.289200 37.140900
246  1  0.1582  8.044080 18.027800 35.994500
247  1  0.1101  5.742700 19.728700 35.895900
248  1  0.4550  6.766080  3.245320 35.951400
249  1  0.3558  2.137330  6.311290 36.388500
250  1  0.1432 11.792300 14.259700 34.466400
251  1  0.2773 12.868200 15.851700 36.147600
252  1  0.1625 13.876800 18.257200 34.368200
253  1  0.0476  9.040750 20.475500 34.803500
254  1  0.8031  8.919640  5.813250 32.652600
255  1  0.3152 12.028300  9.865050 33.242300
256  1  0.1289 13.601100 12.114700 34.702100
257  1  0.2133 14.689800 15.008400 33.769100
258  1  0.0740  3.683700 19.919300 33.637600
259  1  0.2561 12.676400 20.504100 36.055400
260  1  0.5257 13.199900  5.625330 32.726900
261  1  0.1474 17.140600  8.075180 35.884300
262  1  0.1566 16.645400 13.071900 34.875800
263  1  0.0906  1.054350 21.484700 34.250900
264  1  0.0656  2.821410  1.639870 34.164600
265  1  0.1993 -0.104434 15.876800 33.331900
266  1  0.1242  1.122300 18.607300 33.554300
267  1  0.3077  0.881434 10.097200 34.053800
268  1  0.3931  1.650760 12.572200 35.228700
269  1  0.1608  3.008070 17.744900 35.496600
270  1  0.2599  6.725860 19.099300 33.083100
271  1  0.3642  3.282340 21.896800 36.772500
272  1  0.0936  1.426810  3.787170 35.240200
273  1  0.3585  9.116470 10.532200 33.561700
274  1  0.2055  7.297770 13.047600 34.864700
275  1  0.2023  9.168580 15.777700 34.234000
276  1  0.1303 11.011700 18.076100 34.357800
277  1  0.3440  3.805860  4.469420 33.343300
278  1  0.3873  7.952410 22.103100 36.916200
279  1  0.4651  4.969350  8.278070 34.786700
280  1  0.1902 10.705400 11.150700 36.045400
281  1  0.2691 16.025800 16.786000 36.047400
282  1  0.1481 16.210400 19.773200 34.807600
283  1  0.4226  9.441560  1.374320 33.928500
284  1  0.3157 14.551300  0.739562 34.892700
285  1  0.2598 14.167500  8.858070 35.817400
286  1  0.3862 14.775800  9.139710 32.715200
287  1  0.2202 17.194500  2.005150 34.114400
288  1  0.1636 16.655200  5.220350 34.325500
289  2 -0.9207 16.567900 14.713300  0.521997
290  2 -0.7127  1.227790 18.286700  0.833470
291  2 -0.6195 16.903500  7.338510 41.693100
292  2 -0.6106  1.872210 11.451300 41.513700
293  2 -0.6606  3.801950 14.984400  0.404355
294  2 -0.8099  5.374520 18.469100  0.232840
295  2 -0.7056 16.813200 21.911800  0.461036
296  2 -0.7427  0.714449  3.906740  0.463360
297  2 -0.6194  2.710260  7.178100  0.141983
298  2 -0.7353  5.136190 11.159900 41.299600
299  2 -0.7104  7.349860 14.871700  0.436571
300  2 -0.7951  9.826330 18.619000  0.066559
301  2 -0.7426  3.566670  0.241901  0.956084
302  2 -0.6629  5.207830  4.048500 41.559700
303  2 -0.9237  7.807500  7.950950 41.125600
304  2 -0.6718 10.013500 10.719600 41.440500
305  2 -0.7073 11.950900 14.468900  0.727813
306  2 -0.7100 14.217500 18.259500  0.612734
307  2 -0.7471  7.829700 22.167000  0.388141
308  2 -0.8405  9.517960  4.084660  0.172068
309  2 -0.7448 12.568700  7.361110 41.172700
310  2 -0.6157 14.295900 10.689500  0.099681
311  2 -0.8082 11.903100  0.191169  0.296139
312  2 -0.8509 13.992400  3.599310 -0.004951
313  2 -0.7808  1.740440 16.238700  4.136180
314  2 -0.8298  3.934420 19.397600  3.814830
315  2 -0.7485  0.448968  8.164590  4.049680
316  2 -0.6951  3.426910 12.587100  3.355670
317  2 -0.7802  5.515410 15.684700  3.793800
318  2 -0.6772  7.713830 19.767500  3.509670
319  2 -0.6455  0.412113  1.937450  3.647330
320  2 -0.7204  3.033490  5.409330  3.879810
321  2 -0.7951  5.804820  9.340190  2.496110
322  2 -0.8515  7.880370 12.081400  3.443260
323  2 -0.6491  9.545470 17.438200  4.114430
324  2 -0.6577 11.582500 19.897700  3.241070
325  2 -0.6974  5.334620  2.452840  3.596650
326  2 -0.6803  6.521140  6.007610  3.812220
327  2 -0.6886  9.931200  9.101860  3.321990
328  2 -0.6422 12.014400 11.965300  3.254770
329  2 -0.7211 13.094300 15.930500  4.369590
330  2 -0.7930 17.386600 19.147900  5.835070
331  2 -0.8582  9.700840  1.734020  3.449830
332  2 -0.8325 11.632100  5.339470  2.882100
333  2 -0.7082 14.549500  8.277330  2.737080
334  2 -0.8771 17.150800 12.434100  3.442030
335  2 -0.7856 14.890500  1.126280  4.363930
336  2 -0.7458 15.891100  4.858610  3.302740
337  2 -0.8455  0.382466 15.850100 10.261100
338  2 -0.7982  3.002010 19.367200  9.535800
339  2 -0.6373  0.809868  8.230620  9.630220
340  2 -0.6794  2.250530 12.018700 10.870900
341  2 -0.5811  4.195360 15.606300  9.932540
342  2 -0.6921  6.605670 20.193500  9.855630
343  2 -0.8008 -0.242481  0.817052  7.776920
344  2 -0.7055  2.786240  5.582020  9.991270
345  2 -0.5842  4.573670  8.854340 10.092600
346  2 -0.7830  6.118100 11.891400 10.149200
347  2 -0.8005  8.555740 15.907900 10.131200
348  2 -0.6532 11.947200 19.772800  9.531580
349  2 -0.9015  5.205390  1.334260  8.925990
350  2 -0.6994  7.373140  5.271110  9.999760
351  2 -0.6963  8.878280  8.663420  9.359210
352  2 -0.8762 10.928600 12.844600  9.809200
353  2 -0.7827 13.402900 15.988200  9.111510
354  2 -0.6001 14.971100 20.359300  8.495870
355  2 -1.0339  9.822070  1.693400  9.684930
356  2 -0.7418  9.619180  6.402780  6.535740
357  2 -0.6885 13.690200  8.719010 10.232000
358  2 -0.7062 15.377700 12.521100 10.802300
359  2 -0.6558 14.201700  1.524320  9.397360
360  2 -0.8587 16.258800  5.602440 10.292300
361  2 -0.8111  0.387357 13.546000 13.543100
362  2 -0.7569  2.181290 16.985100 13.193200
363  2 -0.7630  0.570758  6.371330 13.491400
364  2 -0.7790  2.408880  9.906850 13.525800
365  2 -0.7874  4.454480 13.058400 13.462500
366  2 -0.7662  6.731600 16.825000 12.984600
367  2 -0.8175  0.451666 20.721900 12.976100
368  2 -0.7618  2.746480  2.663190 12.795700
369  2 -0.5961  4.655390  6.024790 13.262600
370  2 -0.8200  6.930200  9.776730 13.132300
371  2 -0.7771  8.651420 13.253700 13.050700
372  2 -0.6744 11.037400 17.012200 12.865300
373  2 -0.7324  5.151750 20.780600 12.907600
374  2 -0.7313  7.518710  2.766810 13.434300
375  2 -0.8021  9.523390  5.717540 13.430400
376  2 -0.7731 11.135800  9.803440 13.059300
377  2 -0.6135 12.827900 13.406800 12.727600
378  2 -0.8326 15.288700 17.041900 13.004600
379  2 -0.7774  9.194970 20.988500 12.908800
380  2 -0.7121 11.335000  3.252060 13.504300
381  2 -0.7021 14.323500  6.711830 12.942800
382  2 -0.7783 16.041400  9.934130 13.509000
383  2 -0.6976 14.077800 20.845000 12.654300
384  2 -0.6050 16.276700  2.229500 12.400100
385  2 -0.5745 15.286300 14.835500 16.309600
386  2 -0.5482  0.450398 18.524300 16.292700
387  2 -0.5687 16.610800  7.384420 18.692500
388  2 -0.6694 -0.014986 10.871400 16.971600
389  2 -0.5907  1.285450 14.438800 17.222700
390  2 -0.7134  4.651820 18.005400 16.100000
391  2 -0.5511 16.000700  0.291052 15.315100
392  2 -0.5735  0.049087  3.197310 16.279000
393  2 -0.6507  2.192770  7.664830 16.855500
394  2 -0.5660  4.358200 10.383600 17.273900
395  2 -0.6080  6.808840 14.483600 16.192200
396  2 -0.6570  9.610060 18.183200 16.012800
397  2 -0.4993  2.138840 21.410400 16.145900
398  2 -0.6560  3.528780  2.480530 16.763700
399  2 -0.7570  8.026980  7.319350 16.496700
400  2 -0.5957  8.769700 11.082700 16.699100
401  2 -0.5768 11.122600 14.976300 16.307700
402  2 -0.6638 14.089600 18.095400 16.345000
403  2 -0.7151  7.040990 21.272100 16.211300
404  2 -0.6098  9.767300  3.428370 16.715000
405  2 -0.6875 12.009300  8.030190 16.974700
406  2 -0.7456 13.102200 11.821700 16.064400
407  2 -0.7424 12.221900  0.258773 16.254100
408  2 -0.5844 13.904000  3.590450 16.042000
409  2 -0.5664 17.496000 15.145700 24.786200
410  2 -0.7192  2.653830 18.484600 25.135000
411  2 -0.4522 16.989300  7.504750 23.644600
412  2 -0.6403  1.140330 11.154400 24.063700
413  2 -0.6996  4.032010 15.447400 24.674800
414  2 -0.5338  7.207250 18.601200 24.828400
415  2 -0.5996 -0.157862  0.148965 24.559800
416  2 -0.6538  2.133000  3.819380 24.397700
417  2 -0.7535  4.976210  7.917360 24.830800
418  2 -0.7071  5.247740 12.067600 23.944700
419  2 -0.5906  8.660890 15.355200 24.697600
420  2 -0.5621 11.133000 19.247700 23.792200
421  2 -0.6324  3.996680  0.341743 24.156000
422  2 -0.7495  6.384700  3.055790 24.297900
423  2 -0.6427  9.329230  7.538560 23.672700
424  2 -0.7719 10.828600 11.404500 24.355400
425  2 -0.6181 12.444300 15.487900 23.874400
426  2 -0.5576 15.323600 18.119800 24.559700
427  2 -0.5336  8.582660 22.001500 23.666100
428  2 -0.5261 10.712800  4.229610 24.352700
429  2 -0.4081 12.889200  7.602630 24.176900
430  2 -0.6592 15.303700 10.965300 24.472700
431  2 -0.7118 13.093100  1.022260 24.454400
432  2 -0.6008 15.003900  4.238770 24.418200
433  2 -0.5365  1.368930 15.672400 27.888600
434  2 -0.8192  4.597710 19.699000 27.879400
435  2 -0.8022  2.571240  8.625470 27.456700
436  2 -0.6490  3.292430 12.722700 27.046700
437  2 -0.8485  6.519450 15.879000 27.770500
438  2 -0.8291  9.078730 19.462400 28.009000
439  2 -0.6219  2.069070  1.471080 27.830900
440  2 -0.7398  4.013310  4.738440 27.873400
441  2 -0.8436  6.879360  8.897100 27.991800
442  2 -0.8416  8.944520 12.833500 27.594700
443  2 -0.8920 11.194400 16.157900 27.752500
444  2 -0.8101 13.320900 20.337400 27.122300
445  2 -0.7322  7.071110  1.336240 27.688900
446  2 -0.8071  8.610110  5.438300 27.195500
447  2 -0.7774 10.959300  9.129730 27.257200
448  2 -0.7447 13.016000 12.292200 27.456900
449  2 -0.6510 14.797900 16.238000 27.479500
450  2 -0.6213 -0.050235 20.231800 27.443100
451  2 -0.7594 10.673100  1.835710 27.896200
452  2 -0.8788 12.721500  5.640120 27.793300
453  2 -0.7139 14.741100  8.888460 27.520000
454  2 -0.5618 17.144800 12.567800 28.004100
455  2 -0.6858 15.226800  1.604610 27.854800
456  2 -0.7326 17.293200  4.912170 27.978700
457  2 -0.5256  2.530320 13.392400 30.772800
458  2 -0.5690  4.096040 16.955700 30.568100
459  2 -0.7186  2.600950  5.754200 31.121900
460  2 -0.6722  3.583680 11.185500 33.615100
461  2 -0.5024  6.823370 13.302800 31.459700
462  2 -0.6370  7.672430 16.751800 31.519200
463  2 -0.6480  2.174910 20.918800 30.070800
464  2 -0.6211  4.750060  2.835880 30.456600
465  2 -0.6617  6.887020  6.380050 30.953600
466  2 -0.7403  9.624210 10.012700 31.072300
467  2 -0.6810 11.014700 14.213400 30.797900
468  2 -0.6152 13.042500 17.318700 31.248100
469  2 -0.6618  7.298410 21.027500 30.752700
470  2 -0.5701  8.491090  3.273820 31.523500
471  2 -0.8766 11.136000  6.682160 31.012700
472  2 -0.7414 13.388000 10.428600 30.790300
473  2 -0.6826 15.151300 13.892800 31.118600
474  2 -0.7781 17.116900 17.389100 30.853100
475  2 -0.6968 11.341500 20.722800 30.867000
476  2 -0.6300 12.996700  2.754180 30.671200
477  2 -0.7474 15.625000  6.707100 31.125700
478  2 -0.6956 17.345200  9.804950 31.038400
479  2 -0.6531 15.271900 21.303500 31.149600
480  2 -0.6180 17.459100  2.849420 30.901100
481  2 -0.5202  0.633622 13.971200 38.532300
482  2 -0.5903  3.057520 17.524100 39.236900
483  2 -0.6953  0.971918  6.084490 38.957000
484  2 -0.7213  3.106340  9.201380 37.505700
485  2 -0.6665  3.913740 14.697900 38.089600
486  2 -0.7999  7.635320 16.799000 38.810400
487  2 -0.6189  1.127450 20.806300 39.062100
488  2 -0.7062  3.732790  2.238670 38.382100
489  2 -0.6804  5.099090  6.070200 38.208400
490  2 -0.6620  7.851280  6.987010 34.664700
491  2 -0.6876 10.254700 13.926800 38.841400
492  2 -0.6231 12.402400 17.080300 39.098800
493  2 -0.7286  5.480580 20.802300 38.646900
494  2 -0.7082  7.498450  2.423630 38.458100
495  2 -0.4915 10.833500  3.594660 34.951900
496  2 -0.6727 12.654000  9.951120 37.989000
497  2 -0.5818 14.342900 13.968100 38.530800
498  2 -0.5304 16.433400 17.300000 38.707400
499  2 -0.6720 10.070300 21.333500 38.905900
500  2 -0.5530 11.821700  2.722780 38.689600
501  2 -0.5887 13.195900  6.356740 37.486700
502  2 -0.6256 17.145800 10.325300 38.805700
503  2 -0.5793 14.627300 20.308600 39.046900
504  2 -0.6653 16.784800  2.316490 38.534800

