Generated by pymatgen.io.lammps.data.LammpsData

216  atoms

  2  atom types

0.000000 18.096178  xlo xhi
0.000000 18.140645  ylo yhi
0.000000 18.233787  zlo zhi

Masses

1  208.9804
2   78.9600

Atoms

1    1  0.6936  0.681499  0.412853  0.704630
2    1  0.8468  0.183773 18.009300  6.510960
3    1  0.7066 17.772800 17.925700 12.434100
4    1  0.7940  0.312121  6.143630  0.333895
5    1  0.7418  0.114118  6.229790  6.238470
6    1  0.7873  0.773672  6.145140 12.351800
7    1  0.7413 17.719500 12.561900  0.583797
8    1  0.8317 17.957300 12.031000  6.567890
9    1  0.6985  0.501765 11.925300 12.902900
10   1  0.7316  6.369420  0.207710 18.065100
11   1  0.8139  6.381240 17.925800  6.187460
12   1  0.7978  5.747840  0.274416 12.967800
13   1  0.8170  6.340210  5.781720  0.043904
14   1  0.8061  6.818950  6.087770  5.872510
15   1  0.7177  6.692160  5.872320 12.789500
16   1  0.8447  5.858040 12.659300  0.698422
17   1  0.7538  6.334420 11.948800  6.637450
18   1  0.6596  6.390480 12.397800 12.511800
19   1  0.8999 12.675100  0.301376  0.269323
20   1  0.7976 12.590500 18.026200  6.171320
21   1  0.8057 11.584800 18.094200 12.336500
22   1  0.7396 12.029400  6.463900  0.651055
23   1  0.7006 12.384400  5.735200  6.642390
24   1  0.6549 12.367500  5.825540 12.652600
25   1  0.7687 11.906400 13.175000 17.984200
26   1  0.7073 12.225000 11.885000  6.288140
27   1  0.9031 12.091100 11.621200 12.399200
28   1  0.8460 18.206500  3.044180  3.168900
29   1  0.7687  0.189460  3.366940  9.487520
30   1  0.7014 17.471500  2.653570 15.085500
31   1  0.7718  0.447476  9.181510  3.579240
32   1  0.8681  0.668707  9.116010  9.230500
33   1  0.6508 17.721300  9.239880 15.070800
34   1  0.7888  0.198970 15.412600  2.826970
35   1  0.7948  0.082294 15.178100  9.571710
36   1  0.7654 18.073800 14.559000 15.621700
37   1  0.8393  6.375490  3.088290  3.606280
38   1  0.8701  5.951950  2.777770  9.397000
39   1  0.7221  5.920610  3.140400 15.683200
40   1  0.7226  6.315980  9.664190  3.371350
41   1  0.7785  6.966410  7.977280  9.379360
42   1  0.7497  5.521040  8.521200 15.382800
43   1  0.7224  6.483000 15.698500  3.664310
44   1  0.6603  5.891240 15.070300  9.869160
45   1  0.7610  6.318380 14.933000 15.559500
46   1  0.7866 12.401200  2.489320  3.137030
47   1  0.6177 11.500100  3.895120  8.894400
48   1  0.7251 11.386600  3.039520 14.772500
49   1  0.6483 12.277600  8.747220  4.005210
50   1  0.7859 13.061300  9.374270  9.855960
51   1  0.8551 12.142000  9.299820 15.407400
52   1  0.8225 12.686100 15.061700  3.450970
53   1  0.8428 12.796300 14.702800  9.335200
54   1  0.7100 12.539500 15.413700 15.413500
55   1  0.7218  3.536720 18.071700  3.228210
56   1  0.7146  3.650540 17.521500 10.114900
57   1  0.7800  3.320880  0.733491 15.436900
58   1  0.7688  2.893560  5.563150  3.103400
59   1  0.8378  3.578830  6.192800  9.274100
60   1  0.6989  3.637340  6.014580 15.300100
61   1  0.8721  3.137890 11.800500  3.007700
62   1  0.8818  3.789570 11.358500  9.597760
63   1  0.7596  3.288780 11.896900 15.652000
64   1  0.7204  9.242640 18.087600  2.633680
65   1  0.7962  9.068690 17.868900  9.731640
66   1  0.7505  8.912310 17.971100 15.183800
67   1  0.6629  9.696510  6.362060  3.578390
68   1  0.6149  9.355950  5.652370 10.026500
69   1  0.8872  9.329010  5.893490 15.842500
70   1  0.7966  9.480880 12.578400  3.546770
71   1  0.7730  9.442730 11.737700  9.461530
72   1  0.7542  9.065600 11.660000 15.923600
73   1  0.8464 15.662100 18.073700  3.467010
74   1  0.7502 15.204800 17.929200  9.164160
75   1  0.7137 15.056600  0.221575 14.996600
76   1  0.7480 15.133400  6.778840  3.160970
77   1  0.7211 15.736900  5.761190  9.593540
78   1  0.7680 15.034600  6.585880 15.239600
79   1  0.7658 14.846100 12.337000  3.092490
80   1  0.7659 15.191400 11.648700  9.355110
81   1  0.6668 15.346300 11.634000 15.423600
82   1  0.7316  3.335520  2.712970  0.251266
83   1  0.7648  3.784900  2.933290  6.403160
84   1  0.6459  2.878800  3.336840 12.190200
85   1  0.8637  2.841060  9.092290  0.532078
86   1  0.7894  4.114750  8.864330  6.552230
87   1  0.8044  3.457690  9.215620 12.704500
88   1  0.8265  3.042410 15.424300  0.523769
89   1  0.8410  3.221810 14.570600  6.354080
90   1  0.8469  3.093410 14.864000 12.648900
91   1  0.7699  9.225250  3.484060  0.424554
92   1  0.8568  9.351540  2.445220  6.290150
93   1  0.6736  9.002840  2.657790 11.833200
94   1  0.7991  8.296070  8.864780  0.324100
95   1  0.8036  9.404080  9.383380  6.154890
96   1  0.7954  9.172780  8.768010 12.766500
97   1  0.6519  9.630570 16.191500  0.233620
98   1  0.8173  9.604260 14.585800  6.319150
99   1  0.7116  9.617800 14.911700 12.701200
100  1  0.8663 15.509400  3.411060  0.271097
101  1  0.8182 15.241500  3.103350  6.192080
102  1  0.6986 14.776700  3.589300 11.843600
103  1  0.7000 14.530500  9.462320 18.174300
104  1  0.7252 15.672900  8.880970  6.264740
105  1  0.7443 15.312800  9.092640 12.410700
106  1  0.8919 15.458400 15.834700 18.242700
107  1  0.6564 15.502800 15.111000  6.336840
108  1  0.8136 15.285800 15.194900 12.706900
109  2 -0.8643  3.555380  0.125486  0.329539
110  2 -0.6551  3.580850 17.543800  6.658820
111  2 -0.7616  3.018240 17.670300 12.643500
112  2 -0.7314  3.496430  6.084730  0.350898
113  2 -0.7256  3.662450  6.126760  5.991840
114  2 -0.7781  3.554520  6.562940 12.067900
115  2 -0.7436  2.884190 12.489800  0.689211
116  2 -0.6882  3.270090 11.834900  6.273140
117  2 -0.8360  3.513670 12.088000 12.227300
118  2 -0.7838  9.782020  0.906512  0.043274
119  2 -0.6185  9.331890 17.632400  6.679450
120  2 -0.9004  8.969560 18.091500 12.562600
121  2 -0.8522  9.242270  6.356790  0.273715
122  2 -0.7608  9.432940  5.970900  6.326690
123  2 -0.8361  9.574730  5.924860 13.056000
124  2 -0.6173  9.103060 12.676700  0.550122
125  2 -0.9178  9.437810 11.927700  6.343670
126  2 -0.7895  9.507140 12.016800 12.870800
127  2 -0.7427 15.360100  0.361338  0.220248
128  2 -0.8444 15.543200 18.032300  6.101300
129  2 -0.7086 14.509000 17.835600 12.173900
130  2 -0.6930 15.322700  6.572730  0.270294
131  2 -0.8007 15.491600  5.671900  6.364500
132  2 -0.8036 16.001400  6.237890 12.277200
133  2 -0.7042 15.004600 13.160100  0.294192
134  2 -0.8983 15.524000 11.699700  6.660190
135  2 -0.7698 15.047200 11.731500 12.304900
136  2 -0.7984  3.555060  2.653420  3.330920
137  2 -0.7860  3.218470  3.136260  9.300180
138  2 -0.9075  3.284200  3.314300 15.222200
139  2 -0.7345  3.382130  8.814680  3.292000
140  2 -0.7803  3.792790  8.889340  9.269860
141  2 -0.8464  3.167300  9.320860 15.743000
142  2 -0.6989  3.055510 14.840100  3.583040
143  2 -0.7084  3.085210 14.600500  9.405450
144  2 -0.5943  3.246230 15.343200 15.246200
145  2 -0.7805  9.558640  2.582650  3.508650
146  2 -0.7620  8.611910  2.720470  8.807930
147  2 -0.7591  8.762620  3.069210 15.260500
148  2 -0.7338  9.213690  9.953830  2.889150
149  2 -0.6359  9.632060  8.856580  9.675630
150  2 -0.7200  8.953640  8.694110 15.730900
151  2 -0.8088  9.882550 15.269300  3.103530
152  2 -0.6342  9.832630 14.907000  9.211430
153  2 -0.8445  9.352500 15.336800 15.495600
154  2 -0.7000 15.245000  3.129310  3.007830
155  2 -0.7362 15.321000  2.860950  9.233190
156  2 -0.6844 14.801600  3.286230 15.544100
157  2 -0.7659 15.434900  9.382990  2.668380
158  2 -0.7831 15.845600  8.655070  8.770810
159  2 -0.9830 14.861900  9.239510 15.002600
160  2 -0.8087 15.306100 15.164800  3.083300
161  2 -0.7869 15.434300 14.747100 10.087800
162  2 -0.8375 15.321100 15.102400 15.604300
163  2 -0.8764 18.188600  0.051028  3.656740
164  2 -0.7087  0.419029  0.075233  9.256600
165  2 -0.7244 17.826400 18.061900 15.338300
166  2 -0.8069  0.177330  5.384130  3.511010
167  2 -0.7702  0.785240  6.607600  9.451710
168  2 -0.6670 18.059900  5.923070 15.367100
169  2 -0.6918  0.322302 12.406700  3.579520
170  2 -0.6330  0.445735 12.100000 10.055900
171  2 -0.8554  0.582931 11.791500 16.064000
172  2 -0.8849  6.518530 18.093300  3.252420
173  2 -0.7512  6.254080  0.261824  8.834810
174  2 -0.7967  5.700280 17.614200 15.417300
175  2 -0.7057  6.875600  5.899130  2.749770
176  2 -0.7544  6.327840  5.397810  8.830470
177  2 -0.9117  6.476300  5.934770 15.474300
178  2 -0.7862  5.703110 12.298900  3.537900
179  2 -0.7750  6.216070 11.560200  9.321980
180  2 -0.7520  6.221410 11.724600 16.364400
181  2 -0.7871 12.857500 17.803100  3.080280
182  2 -0.5804 12.240300 17.598100  9.120020
183  2 -0.7247 11.987700  0.279440 15.936700
184  2 -0.8439 12.569800  5.967690  3.515740
185  2 -0.7551 12.241300  6.589930  9.733690
186  2 -0.7361 12.120700  6.430380 15.667500
187  2 -0.7039 12.360900 11.803500  2.971190
188  2 -0.8283 12.366800 11.920400  9.683440
189  2 -0.7713 12.156600 11.937900 15.067600
190  2 -0.8516  0.061107  3.229180  0.680797
191  2 -0.6524  0.022121  2.592450  6.597690
192  2 -0.7744 17.567600  2.966270 12.168800
193  2 -0.7226  0.247854  8.866350  0.904824
194  2 -0.8178  0.466834  9.063950  6.229040
195  2 -0.7530  0.585830  8.902730 12.130600
196  2 -0.8532  0.214829 15.473900  0.259573
197  2 -0.7541  0.128840 14.780100  6.653670
198  2 -0.7652  0.313632 14.924500 12.622500
199  2 -0.8120  6.063340  2.922250  0.669728
200  2 -0.7344  6.498960  3.232990  6.209550
201  2 -0.8587  6.111140  2.688670 12.450300
202  2 -0.6941  5.529300  9.020800  0.682237
203  2 -0.8551  6.804800  8.946980  6.684030
204  2 -0.7816  6.141390  8.737650 12.496500
205  2 -0.7669  5.798060 15.085900  0.614205
206  2 -0.7333  6.564070 15.070300  6.695830
207  2 -0.8261  6.145400 15.179200 12.632400
208  2 -0.6330 12.368500  3.323030  0.355266
209  2 -0.8011 12.172200  2.642090  6.452230
210  2 -0.8538 12.028100  2.569250 11.913800
211  2 -0.6057 11.834500  9.722560  0.199738
212  2 -0.7833 11.999800  9.147520  6.684310
213  2 -0.7854 12.024800  9.101460 12.678800
214  2 -0.7635 12.678800 15.727600  0.202628
215  2 -0.8308 12.254000 15.087500  6.296140
216  2 -0.6914 12.512300 15.332900 12.118000

