Generated by pymatgen.io.lammps.data.LammpsData

320  atoms

  2  atom types

0.000000 24.637781  xlo xhi
0.000000 17.058433  ylo yhi
0.000000 27.370788  zlo zhi

Masses

1  208.9804
2   78.9600

Atoms

1    1  0.6387 -1.055630 17.854600  1.801610
2    1  0.7142 -2.160870 18.261400 14.240000
3    1  0.5896 -1.559220  8.784620  0.605107
4    1  0.8169 21.427300  9.355170 14.419400
5    1  0.6503 10.710400 17.593400  0.889941
6    1  0.7072  9.280840 18.170800 13.621400
7    1  0.6128 10.914900  9.192520  0.555189
8    1  0.6827  9.297640  9.915400 14.469800
9    1  0.6971  3.192290  5.563140  9.935190
10   1  0.7796  4.836000  5.707010 23.887200
11   1  0.7240  3.428690 14.392300  9.789560
12   1  0.7877  4.981180 14.486200 24.308000
13   1  0.7301 15.655800  5.382420  9.765710
14   1  0.7269 17.200900  5.250320 23.707400
15   1  0.6587 15.258300 14.086700  9.581580
16   1  0.7264 17.442200 14.012300 23.966600
17   1  0.7113  3.991600  5.944730  5.417980
18   1  0.7344  5.507160  6.706380 17.208500
19   1  0.6692  3.857340 13.780000  5.157710
20   1  0.5882  4.366090 14.169200 18.960200
21   1  0.8213 15.974200  5.361830  6.086040
22   1  0.7506 17.060600  4.797170 18.924600
23   1  0.6827 15.966500 13.636800  5.423680
24   1  0.6370 17.845500 14.220300 18.854300
25   1  0.7604 -2.153130 17.876400  9.664230
26   1  0.6910 -0.960478 18.293900 22.823900
27   1  0.6697 20.968000  9.238040 10.464500
28   1  0.8175 -1.644720  9.501100 23.192200
29   1  0.8131  9.414600 18.337900  9.743350
30   1  0.7421 11.025400 18.383900 23.272900
31   1  0.7591  9.163460  9.908980  9.637700
32   1  0.6477 10.957200  9.604230 22.914700
33   1  0.5216 -0.367231  4.928470  1.217550
34   1  0.7457 -2.261470  5.053060 13.774500
35   1  0.7163 -1.219780 13.673600  0.716077
36   1  0.7848 -2.252600 14.494400 14.432800
37   1  0.6558 10.387900  5.618660  0.993161
38   1  0.6075  8.850250  5.886860 14.125200
39   1  0.7141 10.813100 14.086100  0.440651
40   1  0.7166  9.311300 13.877300 13.874000
41   1  0.7726 21.887800  5.436340 10.021800
42   1  0.7732 -1.326390  4.926800 23.778700
43   1  0.6888 21.963500 13.047000  9.879260
44   1  0.6771 -1.016660 14.236100 23.800600
45   1  0.7928  9.364420  5.568330  9.701400
46   1  0.7526 11.028400  5.665930 22.857800
47   1  0.8306  9.164260 14.073500  9.622310
48   1  0.5932 11.164600 13.329600 22.764400
49   1  0.7405  3.851200  1.753720  4.281010
50   1  0.6510  4.586560  1.480060 19.398700
51   1  0.7068  3.577190  9.558510  5.598730
52   1  0.7491  4.251700  9.816450 18.793400
53   1  0.7369 15.504900 17.612400  5.269380
54   1  0.6766 17.010600 17.946800 19.176800
55   1  0.7478 15.754400  9.633870  5.341830
56   1  0.7021 16.562700  9.205530 19.033800
57   1  0.8248  3.702830  1.295260 10.045900
58   1  0.6710  5.043650 18.286700 23.866300
59   1  0.7579  3.036940 10.005100  9.936570
60   1  0.7888  5.031290  9.710020 23.210800
61   1  0.6986 14.935200 18.124500  9.954770
62   1  0.6729 16.722200  1.353330 24.353400
63   1  0.7379 15.474400  9.751600 10.052800
64   1  0.7842 16.309800  8.984060 23.569500
65   1  0.6881  0.821371  7.435460 25.930500
66   1  0.7632  0.084203  8.054840 12.118200
67   1  0.6725  1.815300 15.979600 25.971200
68   1  0.8075  0.222312 16.178900 11.926400
69   1  0.7246 13.891400  7.356170 26.290600
70   1  0.7227 12.665800  7.772530 12.043100
71   1  0.7034 13.795600 16.121000 25.944900
72   1  0.7753 12.291900 16.369500 11.374600
73   1  0.7880  8.424550  8.110720 25.267200
74   1  0.7187  6.266360  7.716870 11.758400
75   1  0.7902  8.123580 16.114100 25.554000
76   1  0.8680  6.599810 15.817800 11.714900
77   1  0.7235 20.063200  7.165500 25.388500
78   1  0.8056 18.081700  7.363150 12.078900
79   1  0.7505 20.552000 16.579200 26.626600
80   1  0.7645 19.493900 16.582100 12.871800
81   1  0.6605  2.015340  3.483580 25.180000
82   1  0.7575  0.962488  3.829720 12.298500
83   1  0.6411  1.840860 11.649400 26.685000
84   1  0.6898  0.009632 11.815000 12.407100
85   1  0.6685 13.645200  3.262820 25.995700
86   1  0.7382 12.580400  3.306590 11.728200
87   1  0.7741 14.458800 11.648200 25.907100
88   1  0.7378 12.146200 11.718200 11.773100
89   1  0.7601  7.606730  3.609020 24.645300
90   1  0.6827  6.663370  3.481230 11.595300
91   1  0.8224  8.131720 11.819000 25.048500
92   1  0.7376  5.652310 11.261500 11.961900
93   1  0.6537 21.290300  4.143740  0.112630
94   1  0.6940 19.330100  3.180000 11.836700
95   1  0.7853 20.768800 11.634000 26.088000
96   1  0.7440 18.557700 11.880100 11.771100
97   1  0.8178  0.731466  7.907160  7.665630
98   1  0.7879  1.940300  7.898180 20.963600
99   1  0.7859  0.607403 16.619600  8.125160
100  1  0.6517  2.423680 16.066100 21.365700
101  1  0.8057 12.318300  7.694700  7.426460
102  1  0.7995 14.079100  7.484700 21.339500
103  1  0.8453 12.514700 16.007900  6.867750
104  1  0.7484 14.122800 15.925200 21.464800
105  1  0.7187  6.699650  7.888340  7.310250
106  1  0.7625  7.684490  7.676820 20.886200
107  1  0.7862  6.052020 16.267600  7.070010
108  1  0.7481  7.630580 16.315800 20.449400
109  1  0.8183 18.415700  7.560460  7.646450
110  1  0.7613 20.106500  7.143010 21.767300
111  1  0.6207 18.366500 15.821100  7.236890
112  1  0.6210 20.501000 15.693900 22.213900
113  1  0.8341  0.885577  3.827210  7.567270
114  1  0.7123  1.809420  3.764320 21.343500
115  1  0.7303  0.485655 11.658500  7.704670
116  1  0.7193  1.582720 11.482300 21.659100
117  1  0.7822 12.506000  3.414070  7.582770
118  1  0.7943 14.168800  2.800670 21.130200
119  1  0.8324 12.188200 11.488300  7.221110
120  1  0.6255 14.237600 11.907500 21.233900
121  1  0.7703  6.593860  3.251930  7.592680
122  1  0.7111  8.043800  3.863580 20.990700
123  1  0.7683  6.305250 11.783700  8.017940
124  1  0.6995  7.843890 11.647100 21.073700
125  1  0.6550 18.708500  2.509830  7.560300
126  1  0.7383 20.033300  2.765790 21.156800
127  1  0.8004 18.560300 11.657900  7.441550
128  1  0.8283 20.245100 11.716300 21.076900
129  2 -0.7779  6.374660  5.448290  9.525100
130  2 -0.7676  7.294720  6.144810 23.316900
131  2 -0.7874  6.479170 14.128700  9.680980
132  2 -0.6695  8.053570 13.981500 23.202300
133  2 -0.7229 18.776200  5.256130  9.966640
134  2 -0.7175 20.098400  5.150500 23.475600
135  2 -0.6683 18.914700 13.534600  9.591570
136  2 -0.7120 20.673100 13.491300 23.991700
137  2 -0.7283  0.361136  5.971880  9.717250
138  2 -0.7220  1.507170  5.592230 23.085700
139  2 -0.7555  0.320041 14.339100 10.057200
140  2 -0.7477  2.571870 13.947200 23.706200
141  2 -0.7315 12.640000  5.772980  9.847290
142  2 -0.7034 14.058100  5.481840 23.591700
143  2 -0.7102 12.290100 14.139800  9.216970
144  2 -0.7018 14.261800 13.815700 23.727000
145  2 -0.1583 15.925300  3.266240  3.340620
146  2  0.0328 -1.023500  5.748780 18.111800
147  2 -0.0033 17.052500  9.747620  1.357640
148  2 -0.1824 21.041000 11.735200 17.069700
149  2 -0.1519  7.786190  4.175480  3.388640
150  2  0.0527 14.134500  2.168970 16.130300
151  2 -0.0648  5.243590  9.875430  1.688990
152  2 -0.0866 10.955200 13.384200 17.744200
153  2  0.0292 -2.022590  8.751350  4.977100
154  2 -0.2116 21.965400  6.934910 16.200200
155  2 -0.4306 20.633700 14.281100  0.848809
156  2 -0.0125  3.972490 18.331600 14.981900
157  2 -0.0283  9.853650 11.533300  4.104510
158  2 -0.1559 15.970500  7.234490 16.161400
159  2 -0.1454  8.796000 16.808400  3.437780
160  2 -0.0255 11.328300 18.185600 16.945700
161  2 -0.7510  6.529670 17.884100  9.786850
162  2 -0.7076  7.792210  1.243440 23.129400
163  2 -0.8098  5.907330  9.261690  9.680410
164  2 -0.8757  7.985080  9.878020 23.204500
165  2 -0.6396 19.451100 17.349000  9.972890
166  2 -0.5727 20.573400  1.602320 24.125600
167  2 -0.8018 18.313000  9.590590  9.747520
168  2 -0.6723 20.529100  9.980170 23.094000
169  2 -0.7395  0.722462  1.501000 10.000800
170  2 -0.8480  2.143300 18.544300 23.233900
171  2 -0.8505  0.447192  9.754140  9.963580
172  2 -0.6772  1.469580  9.281710 23.319100
173  2 -0.8249 12.071800 18.342600  9.438900
174  2 -0.7761 14.045600 18.171300 23.280400
175  2 -0.7659 12.260200  9.851390  9.681230
176  2 -0.8115 13.958600  9.617520 23.483300
177  2  0.0078  7.083710  2.757220  1.910550
178  2 -0.0706  0.600879  4.169130 17.796800
179  2 -0.0185  6.125160 11.924400  2.347700
180  2 -0.1572 -1.361560 16.736500 16.635800
181  2  0.0175 17.901200  3.098660  2.832980
182  2 -0.0498 14.480600  3.897550 15.202800
183  2 -0.0514 17.954300 11.579500  1.880310
184  2 -0.1334 10.984600 11.384100 18.139600
185  2 -0.1611  9.356830  9.518950  3.786410
186  2 -0.1197  3.153080  8.385240 15.461600
187  2 -0.0819  9.262220 14.563300  3.672230
188  2 -0.1200  3.323160  3.049570 16.469600
189  2 -0.0763 21.567800  5.820160  4.495490
190  2 -0.1229 12.180800  6.338760 15.955800
191  2 -0.2655 15.330900 15.676100  3.025270
192  2  0.0638 12.670100 16.203200 16.645300
193  2 -0.3257  4.608740  4.786870  3.215430
194  2 -0.3886  3.023040  6.629140 18.154200
195  2 -0.3231  0.215390 13.954100  5.652820
196  2 -0.2384  0.878977 13.859600 19.266000
197  2 -0.5035 13.290700  5.170350  5.550080
198  2 -0.3042 13.795200  5.491950 19.038200
199  2 -0.4159 12.821800 14.345600  4.911460
200  2 -0.3160 14.702100 14.547900 18.261300
201  2 -0.4178  0.416198  5.644970  5.640080
202  2 -0.4429  8.167800  5.797260 18.611300
203  2 -0.3427  5.055450 15.423200  3.548730
204  2 -0.4356  7.685290 13.715300 18.502100
205  2 -0.3675 18.593700  5.335950  5.482010
206  2 -0.3887 20.043100  4.571820 19.181000
207  2 -0.4375 18.820800 13.421500  5.303860
208  2 -0.4646 20.375900 14.224200 19.596300
209  2 -0.8559 21.609900  7.098430 12.469500
210  2 -0.8959 -1.571540  7.327180 25.065100
211  2 -0.8585 -2.218680 15.985400 12.038200
212  2 -0.7459 -0.949863 16.272600 25.824400
213  2 -0.8262  9.227740  7.678950 12.072100
214  2 -0.8479 10.863100  7.649910 25.131500
215  2 -0.8949  9.371570 16.083900 11.543900
216  2 -0.7164 10.974100 15.737800 24.936600
217  2 -0.8565 -2.071820  3.019710 11.751500
218  2 -0.7593 -1.114710  3.245730 26.062200
219  2 -0.7917 21.536200 11.494200 12.568200
220  2 -0.7891 -1.120470 11.815900 25.548600
221  2 -0.8437  9.691540  3.415870 11.566900
222  2 -0.7039 10.810800  3.723230 25.156900
223  2 -0.8370  9.258870 11.794000 11.739400
224  2 -0.7576 10.584400 12.154600 25.532100
225  2 -0.5429  0.870592 15.716200  1.601510
226  2 -0.3720  0.662250 18.423900 14.257600
227  2 -0.3845  0.570122  7.746060  2.482240
228  2 -0.3573 -0.192509  9.376630 14.526400
229  2 -0.4874 14.089000 18.163800  0.488829
230  2 -0.4507 12.083300 18.234000 13.685600
231  2 -0.4714 14.095400  9.180180  0.827134
232  2 -0.4093 12.238100 10.676500 14.054700
233  2 -0.5498  8.767210  1.350520 26.789900
234  2 -0.4879  7.217090  2.923120 14.587700
235  2 -0.3137  7.998710  9.756570  0.626303
236  2 -0.5578  6.472910  8.405720 14.696800
237  2 -0.4827 20.830700  1.758430  0.957446
238  2 -0.5389 19.837600  1.544710 14.549500
239  2 -0.4639 19.976000  9.190620 -0.118517
240  2 -0.4840 18.675500  9.400260 14.005000
241  2 -0.8669  3.500840  7.625300  7.462070
242  2 -0.7231  4.545910  7.667870 21.505700
243  2 -0.7851  3.516990 16.635700  7.854980
244  2 -0.8293  5.143460 16.219200 21.965600
245  2 -0.8456 15.845200  7.542000  7.516420
246  2 -0.8538 16.684100  7.373770 21.349200
247  2 -0.9231 15.231800 16.062900  7.400320
248  2 -0.7981 17.040000 15.887400 22.101000
249  2 -0.7376  3.727110  3.606830  7.195580
250  2 -0.7256  5.035950  3.758830 21.406300
251  2 -0.8746  3.670710 11.914400  7.736470
252  2 -0.7615  4.824420 11.362600 21.059400
253  2 -0.8513 15.887000  3.242570  7.787100
254  2 -0.8454 16.902700  3.089460 21.077800
255  2 -0.8412 15.616200 11.636000  7.600940
256  2 -0.7195 17.070400 11.703800 21.220800
257  2 -0.4054  8.006450  5.888740 -0.247246
258  2 -0.0454 11.563900  8.011070 16.948000
259  2 -0.4209  8.010430 14.037300 27.393500
260  2 -0.4704  6.447310 14.277100 13.836500
261  2 -0.1761 19.373500  5.761290  2.040040
262  2 -0.3099 17.967100  5.086480 13.809700
263  2 -0.0589 21.225200 11.263400  2.782280
264  2 -0.5113 19.804600 14.510500 14.657600
265  2 -0.5010  2.113520  5.368970  0.224563
266  2 -0.4222  0.162125  5.814540 14.244200
267  2 -0.4388  0.286343 11.486000  1.880830
268  2 -0.4324  0.583114 14.115900 14.019700
269  2 -0.3682 13.732700  5.623450  1.481880
270  2 -0.3078 17.141000  2.697960 17.034000
271  2 -0.4397 13.659100 13.517600  0.736490
272  2 -0.3467 12.000500 14.400600 13.995900
273  2 -0.4115 -2.450620  3.425380  8.000640
274  2 -0.4389 -1.756190  3.480210 21.081400
275  2 -0.4405 21.419600 10.899000  8.019300
276  2 -0.4161 -1.380500 12.102600 21.372500
277  2 -0.5878  9.554970  3.539560  7.903250
278  2 -0.5039 11.138100  3.306020 21.087500
279  2 -0.5452  9.172580 11.773900  7.717850
280  2 -0.5236  7.010440  9.488690 18.638700
281  2 -0.4383 21.405700  7.295640  8.213910
282  2 -0.4063 -1.553800  7.074180 21.475700
283  2 -0.3639 22.218200 15.686800  7.560010
284  2 -0.4083 -0.933927 16.341400 20.977400
285  2 -0.6053  9.452820  7.591550  7.722190
286  2 -0.5414 10.733000  7.733180 20.953300
287  2 -0.4384  8.925670 15.475500  7.482530
288  2 -0.3953 11.585400 16.229800 20.617000
289  2 -0.4962  6.392210 18.580800  5.633500
290  2 -0.4917  7.271210 18.311600 18.649300
291  2 -0.4906  6.235600 10.503000  5.522490
292  2 -0.2177  5.694530 11.421400 15.475300
293  2 -0.3247 19.537600 17.986100  4.800620
294  2 -0.2973 20.252100 17.398700 18.450400
295  2 -0.4067 18.775400  9.718280  5.570690
296  2 -0.3927 20.186800  8.968780 19.407900
297  2 -0.5266  0.822239  1.767710  6.047120
298  2 -0.3251  1.568730 17.355600 18.826800
299  2 -0.4394  0.742014  9.988330  5.502090
300  2 -0.4322  1.464010 10.376200 18.992400
301  2 -0.4309 12.606500 17.844900  4.932790
302  2 -0.4177 14.111500 18.039100 19.201400
303  2 -0.5801 12.959100  9.783810  5.546070
304  2 -0.4777 13.857100  9.498750 19.444200
305  2 -0.5781  3.686830  3.007090 11.981700
306  2 -0.3894  5.424830  3.406450 26.329700
307  2 -0.5522  3.252350 11.968300 11.927200
308  2 -0.4808  5.225990 11.735400 25.609100
309  2 -0.5134 15.520600  2.960000 11.680500
310  2 -0.4149 17.294900  4.021000 25.977000
311  2 -0.3404 15.348600 11.681700 12.784400
312  2 -0.3825 17.262100 11.287700 25.800000
313  2 -0.5147  2.993240  7.449550 12.055300
314  2 -0.3417  4.192220  7.830720 25.793100
315  2 -0.4741  4.026320 16.374600 11.881000
316  2 -0.4693  4.739000 16.070600 26.642400
317  2 -0.6360 15.459300  7.698750 11.726000
318  2 -0.5249 17.239900  7.622080 25.569100
319  2 -0.4866 14.990500 15.993400 11.858600
320  2 -0.3975 17.176200 16.031000 26.476000

