Generated by pymatgen.io.lammps.data.LammpsData

320  atoms

  2  atom types

0.000000 24.637781  xlo xhi
0.000000 17.058433  ylo yhi
0.000000 27.370788  zlo zhi

Masses

1  208.9804
2   78.9600

Atoms

1    1  0.7322  4.204300  4.514150  4.394080
2    1  0.7625  4.701790  3.971640 19.517100
3    1  0.6699 -0.723727  9.742280  4.988000
4    1  0.7049 -1.128100  5.988490 20.400300
5    1  0.6079  9.430120  7.188600  6.315070
6    1  0.7159  9.748230 17.033300 10.399900
7    1  0.6307 21.919000 15.724400  3.385340
8    1  0.6985  7.668350  7.948090 11.322900
9    1  0.6537  3.892110  6.675270 11.406800
10   1  0.6937 -2.014370 17.949300 20.189900
11   1  0.6483 -1.443790  9.546090 10.532400
12   1  0.7422  1.960240 17.397500 24.729900
13   1  0.7989 14.358600  2.276540 19.597700
14   1  0.6753 18.036300  4.245580 24.130900
15   1  0.7938 17.979300 12.984800 12.753000
16   1  0.6075 16.952300 15.067000  0.044978
17   1  0.6868  6.081370 16.804200  3.849050
18   1  0.6794 10.291200  9.784580 22.542100
19   1  0.7485  3.003540 16.239300  0.987773
20   1  0.8498  4.780630 14.475400 23.667100
21   1  0.6654 15.877200  9.385860 12.121500
22   1  0.7804 16.038200 13.785600 16.600300
23   1  0.5934 16.579300 11.644300  0.932346
24   1  0.7153 14.759200 11.052800 19.694800
25   1  0.4382 21.743100 16.588300 11.347900
26   1  0.5554 16.055900  1.600300 26.038000
27   1  0.8623  2.856180 11.305300  7.848040
28   1  0.6341 -1.339810  9.969410 23.104800
29   1  0.6159 14.457700 16.390700 10.078800
30   1  0.7798 11.509800 16.861400 20.154600
31   1  0.4223  2.117140 15.583400 11.386100
32   1  0.8789 10.446000 11.769500 18.560200
33   1  0.6233  2.169800  2.558520  6.970320
34   1  0.6554 18.174800  2.002760 21.145400
35   1  0.7315  2.159890 15.276400  5.174560
36   1  0.7434  2.051600 12.825800 16.492800
37   1  0.6715 12.531100  2.662330  9.541610
38   1  0.8341  8.377250  7.026800 16.629400
39   1  0.6044 10.630400  2.939650  5.287320
40   1  0.7692 12.125800  8.564790 15.444700
41   1  0.7963 -2.079290  2.874320  6.745200
42   1  0.6762  0.732357 17.551300 21.185200
43   1  0.4385 -0.699753 13.891800 12.325400
44   1  0.7176 21.975100 11.723300 26.318000
45   1  0.5219 10.899900  6.212720 12.660900
46   1  0.4475 10.316000  7.301500 27.244700
47   1  0.6891 12.622100 16.351800 13.682800
48   1  0.6024  9.406690 10.894600 27.022000
49   1  0.6866  7.901000 11.316700  8.197950
50   1  0.6568  3.602210  7.852340 19.389000
51   1  0.6738  7.899110 17.840300 27.573700
52   1  0.7339  5.943070  9.644360 14.063800
53   1  0.6491 18.734100  2.189500 10.605100
54   1  0.5571  9.910650  4.615020 24.845800
55   1  0.7231 -1.853490 14.200900  6.673880
56   1  0.6033  2.066530  1.287410 17.603000
57   1  0.5357  8.103030  7.546820  3.221860
58   1  0.7134  2.934860  5.030490 22.725100
59   1  0.6967 -1.367340  6.858030  7.055000
60   1  0.6015  3.538990  9.843150 26.039600
61   1  0.7719 16.774900  2.595260 14.102700
62   1  0.7951 20.944000 16.128600 23.613600
63   1  0.7280 12.359800 13.101900  9.418170
64   1  0.7814 19.434400  8.786520  1.942720
65   1  0.6733  1.319760 12.200500 24.927200
66   1  0.7908  4.465050  3.219510 11.675100
67   1  0.6971  0.817738  1.419160  3.271030
68   1  0.4415 -0.486131 16.198300 14.258700
69   1  0.5616  2.885680  8.896610 22.729700
70   1  0.8033  8.458900  2.641000 19.262500
71   1  0.7748 15.847100  9.651730 22.964900
72   1  0.7934  8.991850 17.487300 15.583100
73   1  0.5907  6.973360  6.486110 24.328700
74   1  0.6475  8.136650  4.652130 13.384300
75   1  0.6258  8.477390 14.287100 26.595500
76   1  0.7606  8.202760 12.715600 11.516000
77   1  0.6631  0.455440  8.255480 27.131000
78   1  0.7287  3.152070  7.125140 15.244800
79   1  0.6141 19.100900 18.511900 27.209000
80   1  0.6468 20.122800  2.220910 16.901100
81   1  0.6844 -2.249900  3.297760 23.242600
82   1  0.7907  4.317680 12.393600 12.676200
83   1  0.6337  0.436863 13.249900  1.085910
84   1  0.5904  3.530040 15.658800 15.261000
85   1  0.7539 13.273500  3.709720 27.336700
86   1  0.7086 16.541100  5.309060 17.869100
87   1  0.6642 12.865400 10.160300 26.764700
88   1  0.7290 16.441600  8.826290 16.082100
89   1  0.6821 16.041000 16.075100 23.185900
90   1  0.5890  9.590400  5.496190 10.055500
91   1  0.6700  4.377380 17.276800 21.036900
92   1  0.7808  9.239620 11.646800 14.696300
93   1  0.6265 20.243500  6.623760 21.820700
94   1  0.7021 21.601000  3.507510 12.755500
95   1  0.6119 20.922100 14.956200  0.274895
96   1  0.6921 -0.790843  7.261920 13.498600
97   1  0.7955 18.805200  7.976330 10.826700
98   1  0.5267  1.037520  9.876670 19.915700
99   1  0.6104  3.826120 15.457300  9.043390
100  1  0.7365 19.609900 16.448300 18.611600
101  1  0.8198 13.039200 11.621300 13.012200
102  1  0.7717 12.177400  5.215260 22.093500
103  1  0.8224  6.336020  6.362400  8.258860
104  1  0.4953 10.348300  2.716310  1.997810
105  1  0.6770 12.692700  2.993190 14.167100
106  1  0.6953  6.865790 14.333500 16.272500
107  1  0.7853  4.882590  3.521050 15.864900
108  1  0.6900  8.307890 14.459100 18.860800
109  1  0.7337 18.060600 10.166100  7.665360
110  1  0.6810 13.314600  7.691550 19.234100
111  1  0.8205 19.752000 13.914300  9.590510
112  1  0.6651 15.288600  6.170150 12.243400
113  1  0.4807  0.346090 18.027900 10.526900
114  1  0.7585 -0.642291 16.895400 27.211200
115  1  0.6169  1.144870 11.943200 10.445500
116  1  0.7539  5.185070 11.031500 18.347200
117  1  0.7607  5.421330  1.678660  8.407380
118  1  0.6613 11.721400 14.760000 26.087600
119  1  0.7089 19.994400 11.416100  4.784020
120  1  0.7109 13.302600 13.016500 22.416500
121  1  0.6107  5.825200  7.422960  0.329535
122  1  0.7602 12.680400 18.362900 23.463800
123  1  0.7826 11.997800  9.361300  9.620740
124  1  0.6936  8.862080 14.742000 22.440000
125  1  0.5524  0.820335  5.924140  3.747050
126  1  0.7228 -1.138210  3.136680 16.812500
127  1  0.4384 -1.161020 16.760300  8.154130
128  1  0.6773 15.077900 14.936800 19.468200
129  2 -0.4339  6.495560  2.345580 13.241600
130  2 -0.4564  7.597120  4.963130 19.433100
131  2 -0.5774  1.765400 18.034600 13.107400
132  2 -0.7322 -1.542370 17.911200 22.828700
133  2 -0.4521 -1.757210  6.480350 11.103000
134  2 -0.3723 18.391500  9.732060 26.740500
135  2 -0.3339 19.337400 14.616600 16.425200
136  2 -0.5489 15.992200 13.455100 21.514100
137  2 -0.5506 16.577900  7.874410  9.779390
138  2 -0.6688  5.577570  1.462300 18.053900
139  2 -0.4196  4.733120  8.730350  9.192160
140  2 -0.6641  0.557227  7.495570 22.798600
141  2 -0.6093 15.360800  6.004500 14.888100
142  2 -0.4478  6.952390 13.031400 23.959700
143  2 -0.0426 15.455900  2.680080  6.848700
144  2 -0.4356 11.641100 18.245600 17.588700
145  2 -0.0067 15.586400 17.713800  6.458850
146  2 -0.3406 -2.034260  9.456790 19.732500
147  2 -0.0742 13.752100  8.196690  6.499810
148  2 -0.8424  2.413570 13.727300 13.700300
149  2 -0.0401  6.726070 12.538500  3.582920
150  2 -0.6731 10.773700 13.468800 12.134800
151  2 -0.1286 16.214900 13.634400  4.792620
152  2 -0.7461  8.290180 12.341800 17.284900
153  2 -0.4862  7.331200  3.082420  2.104310
154  2  0.0028 20.137500 10.939500 16.064000
155  2 -0.2668  3.207060  8.272670  6.014480
156  2 -0.5365  6.390080  9.113960 16.699900
157  2 -0.6660 12.117100 17.484500  8.804070
158  2 -0.4639 11.659800 11.347500 15.750000
159  2 -0.5362 21.138800 10.873800  7.023000
160  2 -0.5550  4.936840  5.957270 17.153100
161  2 -0.6546  0.036036  4.698190  6.686740
162  2 -0.4913  1.436330  1.491440 -0.152220
163  2 -0.5558  9.800830 10.566700 11.094100
164  2 -0.6259  4.692990 11.786100 15.671500
165  2 -0.4335  2.908470  4.232730 14.063400
166  2 -0.8205 19.469100  1.915470 24.170300
167  2 -0.5467 21.875000  8.525730  3.276440
168  2 -0.0303 15.978900  6.736810  2.692040
169  2 -0.7415  3.696410 12.692800  9.918580
170  2 -0.4615  9.715190 16.531600  1.912700
171  2 -0.6554  7.246720  5.815580  5.987440
172  2 -0.6549  6.597090  9.144790 25.591900
173  2 -0.4574 10.392300 14.723600 16.766200
174  2 -0.6503 12.513100  4.448470 24.466900
175  2 -0.7885 -2.303990 14.066600 10.190200
176  2 -0.5293 13.026500  8.222550 23.387100
177  2 -0.0390  8.748440 14.273400  3.950520
178  2 -0.7183 -0.999212  3.498510 19.433400
179  2 -0.4550 11.129000 13.111800  0.773805
180  2 -0.5811 18.443400 13.811000 25.956500
181  2 -0.2763  1.193690  4.399890 24.965900
182  2 -0.6832 10.962800 14.220000 20.342400
183  2 -0.5795 20.190800 12.414000  1.473150
184  2 -0.0029 -1.884590 12.125000 17.155900
185  2 -0.1934 14.326800 14.338400  1.959440
186  2  0.0420 20.077000 12.175200 18.516800
187  2 -0.5526  8.971660 16.777200 24.826700
188  2 -0.2487  7.088820 16.754900 11.597500
189  2 -0.4981 16.691300 17.875700  1.251450
190  2 -0.5973 11.402100  5.337420 15.274500
191  2 -0.1041 21.011100  5.811010  0.292471
192  2 -0.6991 12.467500 10.744600 20.872500
193  2 -0.2336  9.201650 10.407700  3.958570
194  2 -0.7277  2.669300  2.454180 20.336700
195  2 -0.3022  4.659060 12.705200  6.318730
196  2 -0.3890 10.141000  8.913440 17.955300
197  2 -0.7146  7.664280  5.261900 26.523500
198  2 -0.3108  7.596240  2.379280 22.712300
199  2 -0.0612 13.857500  9.059290  3.043230
200  2 -0.7908 13.616000 16.518700 21.723400
201  2 -0.3203  0.264090 12.319600  5.359060
202  2 -0.4444 10.796500  6.914070 20.235800
203  2 -0.5570 11.230900  9.084810  1.354070
204  2 -0.4727  3.193060 13.183200 19.264500
205  2 -0.0653 18.035000  6.592690  6.239530
206  2 -0.0820 19.440000  8.037480 18.136800
207  2 -0.5331 14.879200 11.793200 24.280300
208  2 -0.7115 18.003600 16.611200 20.908500
209  2 -0.3312  1.803970  4.649890 10.931600
210  2 -0.8935  0.504233  9.945750 25.178700
211  2 -0.6120  2.232200 15.791100 22.440300
212  2 -0.2607 -2.070560  4.232160  2.765840
213  2 -0.7651  8.860930  8.080550  8.841930
214  2  0.0947 12.738900 13.708400  5.224880
215  2 -0.5424 13.774800 13.527400 17.829700
216  2 -0.2410 13.503900 18.185200  1.902260
217  2 -0.4924 -0.447562  3.642750 14.377500
218  2 -0.4923  2.881160  4.742320  2.174510
219  2 -0.3613 -0.930566 10.878800 14.129200
220  2 -0.5663 -1.442750 10.874500  0.983306
221  2 -0.5096  8.220380  3.507510 15.882200
222  2 -0.5778 16.030200 11.634900 14.420800
223  2 -0.5235 18.318200 15.257600 11.073300
224  2 -0.4151  3.537140 14.144800  3.287770
225  2 -0.3284  9.611940 13.724900  7.653070
226  2 -0.5607 16.578000  2.002270 18.115000
227  2 -0.7661  3.116560 18.204500  9.682920
228  2 -0.7350 10.669500 12.076500 24.481700
229  2 -0.2611 -2.255920  6.425690 17.232500
230  2 -0.4646  6.448240 16.169600  8.377640
231  2 -0.0280 16.288300  4.402260  2.541090
232  2 -0.5175 14.615000 14.943700 13.095900
233  2  0.0175 12.382600 10.444700  3.854520
234  2 -0.4714  9.364400  2.729010  8.646480
235  2 -0.1985 -0.707423 14.415600 21.702900
236  2 -0.4634 20.626900  8.004350  8.673640
237  2 -0.5105 17.691500  9.697150  3.991580
238  2 -0.0278 19.827200 11.662000 20.963300
239  2 -0.7323  3.386900 17.620800  3.609570
240  2 -0.3801  2.014570  4.263990 17.009100
241  2 -0.8066  7.083560  5.145530 10.487600
242  2 -0.3383  7.127900 10.913100 20.452700
243  2 -0.6717  1.202510 14.371900  7.718650
244  2 -0.7406  2.296450 15.028200 26.189400
245  2 -0.4487 18.305600  5.152410 12.438300
246  2 -0.5715 15.489200  3.055470 22.347300
247  2 -0.5462 -2.430140  2.863180  9.818620
248  2 -0.6688 20.203000 18.355100 13.352100
249  2 -0.5569  4.193840  4.147440  7.777110
250  2 -0.6723  4.937010  6.897340 21.757300
251  2 -0.5172 -0.480204 11.839400  8.678840
252  2 -0.3969  4.181130  2.056520 24.031700
253  2 -0.6404 14.547500 16.176000 25.541600
254  2 -0.5139 16.780300 11.475500 18.124300
255  2 -0.2265 20.671400  7.168600 14.024500
256  2 -0.5833 12.117800  1.646690 26.047300
257  2  0.0131 11.785000 15.756600  5.090240
258  2 -0.4803 17.096400  6.444460 22.153000
259  2 -0.1089 15.119800 10.772900  5.803110
260  2 -0.5327  0.171743 15.904100 17.094300
261  2 -0.7435  0.154228 15.653800  2.526760
262  2 -0.4614 18.253500  4.130930 15.426500
263  2 -0.6468 14.013800 11.485900 10.580400
264  2 -0.4637 20.267800 11.137000 11.419700
265  2 -0.4319  6.382940  2.712360  5.451290
266  2 -0.6405  8.531840 16.962600 20.300900
267  2 -0.7179 -2.044820 14.931400 25.593900
268  2 -0.3007 20.986300  5.074050  6.732570
269  2 -0.3890  6.595250  9.783350  1.855820
270  2 -0.7139 13.864800  9.463610 17.280000
271  2  0.0574 15.543700  7.265020  5.963050
272  2 -0.5064 22.095500  6.091350 23.863300
273  2 -0.2986 14.894900  8.569560 26.172800
274  2 -0.0985  4.707400  2.899860 26.726800
275  2 -0.4383  1.390750  8.794360  8.205110
276  2 -0.0379 -1.549740 13.205000 19.198800
277  2 -0.6005 12.762200  6.279170 10.405600
278  2 -0.4102 14.391600 17.842100 15.631800
279  2 -0.6857 10.374500  1.114030 13.197600
280  2 -0.6209  8.992610  8.696440 13.893300
281  2 -0.1111 19.531300  4.000950  1.909990
282  2 -0.5438  1.963320  5.827740 19.792400
283  2 -0.4508 20.247500 17.504700  7.963840
284  2 -0.3027 17.451500 16.110200 14.214400
285  2 -0.3697 11.793200 11.352300  7.525870
286  2 -0.1306 17.835600  3.846110  8.060490
287  2 -0.2131  8.949100 16.892800  5.545720
288  2 -0.4986  5.649310 14.610200 20.547700
289  2 -0.7221 14.446000  2.672900 11.931000
290  2 -0.6326  3.451700 11.381500 23.890500
291  2 -0.6540 12.129400  9.106160 12.630400
292  2 -0.3236 20.475900 10.476200 23.647100
293  2  0.0213 16.816200 15.685800  4.618730
294  2 -0.7042 21.907500 17.398500 17.725000
295  2 -0.6922 21.633200 17.554700  0.414100
296  2 -0.6164  2.583360  9.130400 13.319500
297  2 -0.4731 22.587200 13.196000  3.811820
298  2 -0.6508 19.374300  3.922540 19.527400
299  2 -0.0183 19.265600  2.201740  3.861750
300  2 -0.7452  6.315540  6.569750 13.689300
301  2 -0.3858 12.440200  4.664300  7.012660
302  2 -0.5430 13.718900  4.796060 19.041200
303  2 -0.4188 19.938500 14.334400  6.132410
304  2 -0.5711 11.671200  2.641270 21.018600
305  2 -0.6394  6.878260 13.546100 13.580500
306  2 -0.4746  2.951110  8.420430  2.471610
307  2 -0.5751  6.380440 10.475300 10.852600
308  2 -0.5530  5.798960 15.144400 26.571000
309  2 -0.2779 18.840400  8.818920 20.145400
310  2 -0.2389 15.378900 14.929100  7.907880
311  2 -0.4895 17.245000 11.874500  9.580570
312  2 -0.3628 21.449500 15.598000 21.063300
313  2 -0.5963  2.175730  9.774160 17.382800
314  2 -0.1082 -1.627500  3.451440 26.597800
315  2 -0.5404  6.428980 16.541400 15.147800
316  2 -0.3866 16.428900  4.921020 26.259600
317  2 -0.5471 17.848500  8.833270 13.494500
318  2 -0.5089 12.390300  5.533310  1.864280
319  2 -0.1368 18.982300 17.207700  4.637810
320  2 -0.8436 -0.159760 18.092300  5.796660

