Generated by pymatgen.io.lammps.data.LammpsData

320  atoms

  2  atom types

0.000000 16.864293  xlo xhi
0.000000 23.165087  ylo yhi
0.000000 24.472453  zlo zhi

Masses

1  208.9804
2   78.9600

Atoms

1    1  0.8665  3.005990 10.939200  4.770620
2    1  0.7558 15.959400  9.767920 22.783500
3    1  0.7260  1.718130  0.780060 12.997900
4    1  0.7879  4.028670 22.035500 15.996300
5    1  0.8098  4.311220 10.117700 13.909400
6    1  0.7864  5.573490 13.503500 20.291600
7    1  0.7280  5.933950  1.380460 11.038500
8    1  0.7127  0.156908 19.799800 19.294600
9    1  0.8073 11.400000 16.687000 10.123200
10   1  0.6789 11.912500 11.419600  1.475480
11   1  0.7936 10.844800  1.711740 10.137700
12   1  0.6651 11.900000 20.943000  0.031270
13   1  0.7187 13.544500 12.857600  8.125550
14   1  0.6190 14.068600  7.444720  1.904770
15   1  0.7443  1.387030 20.779000  9.648410
16   1  0.7045  0.593288 22.078400 21.694000
17   1  0.8536  5.650000 21.858100  3.669490
18   1  0.6495  1.130960  6.042960 12.346500
19   1  0.6191  5.501080 13.558200  2.888070
20   1  0.8527  7.220670  9.140740  9.359930
21   1  0.5064  9.921800 23.022300  2.795850
22   1  0.7632 12.892900  1.396480 23.098200
23   1  0.8300  7.986960 10.184500  5.277000
24   1  0.7841  7.582260  8.491860 14.884000
25   1  0.7684  8.259960  2.888550  3.572370
26   1  0.6120 11.858000  1.480690 15.539200
27   1  0.7581 10.984600 12.689700  5.155010
28   1  0.7101 10.205500 12.241700 15.840200
29   1  0.6754  1.010810  2.217510 22.664500
30   1  0.7996  1.553740 20.497200 13.852700
31   1  0.8239  2.737040 10.036200  1.198370
32   1  0.6026  1.792490  7.784080 15.707600
33   1  0.7009  5.791220  5.506980 11.736900
34   1  0.7869  3.611050  4.074660 21.396100
35   1  0.7464  1.497020 14.935000  8.714740
36   1  0.6996  3.325950 19.275200 22.300800
37   1  0.6255  8.198120  4.900770  7.688740
38   1  0.7031  8.001720  7.548210 21.702100
39   1  0.7210  7.013880 17.323100 10.187000
40   1  0.8247  2.687400 21.216200  0.639675
41   1  0.8379 11.525300 21.812900  7.137130
42   1  0.6718  7.855930  5.385260 18.254500
43   1  0.7905  8.646920 20.390000 11.281900
44   1  0.8350  7.156920 17.574200 20.576200
45   1  0.8535  1.266730  7.012460  3.820370
46   1  0.8453 14.998900  4.190750 19.806300
47   1  0.8390 16.595400 19.963700  6.190610
48   1  0.7294  1.381960 15.633300 13.919700
49   1  0.7297 14.745800 10.682300  3.559920
50   1  0.6646  1.434530  4.264690 15.512300
51   1  0.6767  3.186270 17.894400  8.405240
52   1  0.7291  6.410210 12.414200 15.803400
53   1  0.7607  7.002450  6.900060  4.891440
54   1  0.4676  7.513370  5.008200 14.835700
55   1  0.7467  6.739990 15.309400 23.984200
56   1  0.7492  5.446270 20.795700 19.070700
57   1  0.7009 12.111500  7.354510  9.682500
58   1  0.7312  2.909100 13.077100 17.487600
59   1  0.5627 11.383900 19.548200  2.668760
60   1  0.7370  6.256550 18.845400 16.087200
61   1  0.6038 12.086800  8.867990  7.643250
62   1  0.8445 10.010400  8.960550 18.314900
63   1  0.7880 15.303900 17.741900  2.800060
64   1  0.7340  8.686360 22.520200 19.020500
65   1  0.7801  3.218840  3.467990  8.515990
66   1  0.7123 12.954300  1.125980  2.423790
67   1  0.7320  8.592230 17.649800  4.114040
68   1  0.8013 15.668900  9.140140 18.315700
69   1  0.7746  7.047840  0.418112  7.348180
70   1  0.8021  1.993510  1.853630  2.347140
71   1  0.7747  5.670100 15.827000  7.012500
72   1  0.8135  2.950970 17.721400 16.169600
73   1  0.7605 15.056000  2.546790 15.311600
74   1  0.7460  8.532630  2.890920 20.953300
75   1  0.8948 12.010900 16.844100  5.703660
76   1  0.8387  8.249340 15.549800 17.428200
77   1  0.7739 15.562000  3.291210  4.667170
78   1  0.7315 11.559500  4.577840 18.016600
79   1  0.7654 14.394500 15.622500  8.290420
80   1  0.8543  0.495997 10.969900 14.769900
81   1  0.7728  3.860340  6.996040  6.810300
82   1  0.7662  3.849910  8.356490 17.706300
83   1  0.6521  4.087790 21.539800 11.023500
84   1  0.6416  4.990000  3.179080 14.152500
85   1  0.7768  4.941470 13.086100 10.432900
86   1  0.7644  4.773520 10.036000 21.304600
87   1  0.8669  8.216340 20.053100  6.726700
88   1  0.8384  7.032100 21.083000 22.826800
89   1  0.5229 11.171600  4.868090  7.783670
90   1  0.8024 13.851100 12.215500 15.920800
91   1  0.8346 15.799000  3.412220  9.269730
92   1  0.7593 12.176100  0.139439 19.527100
93   1  0.7617 16.762000 13.504200  1.266080
94   1  0.7290 12.435100  7.418050 20.060600
95   1  0.7941  4.798170 18.141200  4.559670
96   1  0.7397 16.231400  0.473168 18.045500
97   1  0.8183 12.992300  4.898200 13.164200
98   1  0.7547  5.778670  6.144520 23.743800
99   1  0.8118  3.373820  9.454430 10.292500
100  1  0.7499  0.279536 16.785200 24.135800
101  1  0.8856 10.194800  7.854510 12.882500
102  1  0.7091  7.204940  1.447270  0.283132
103  1  0.6343  5.979040 19.123600 12.577300
104  1  0.6411  7.938370 20.061400  1.367940
105  1  0.8495 11.797800 11.952900 11.488100
106  1  0.6572 12.058000  5.662850  4.790100
107  1  0.8493  4.884150  2.111150 17.999700
108  1  0.7892 12.881900 16.883400 24.080700
109  1  0.8435 15.678000  9.078640  7.608920
110  1  0.7790 15.731300  6.312710 22.826700
111  1  0.7459 13.991300 15.446500 12.758300
112  1  0.7480 14.847800 21.182900  2.414700
113  1  0.8839  1.605410  7.363900 20.146700
114  1  0.8776 13.403600  8.240170 14.881500
115  1  0.7225  7.714490 10.815800 23.922300
116  1  0.7580  3.669160 15.997300 12.398600
117  1  0.7006  2.345280  4.883680  0.155538
118  1  0.8114  8.048210 23.332100 15.204300
119  1  0.7548  3.160860 17.324500  1.364120
120  1  0.8622  8.250300 12.215600 11.358500
121  1  0.6056  9.639550  0.376429 22.653100
122  1  0.5171 10.175400  3.529310 15.344400
123  1  0.6142  9.427810 14.473200  2.131160
124  1  0.7834  9.901270 15.419600 13.685900
125  1  0.8558 11.710900  5.273850 23.039700
126  1  0.6733  8.077880  4.063950 11.960900
127  1  0.8420  0.377117 14.805700  5.004350
128  1  0.7605 16.652500 12.636100 10.737100
129  2 -0.6889  0.140545  3.567640 13.121300
130  2 -0.5543 15.716800  1.847760 20.827600
131  2 -0.6142 -0.024601 16.305600  7.169910
132  2 -0.3151 14.894500 16.762700 22.162400
133  2 -0.7705  8.512930  2.878700  9.495110
134  2 -0.4247  4.078840  6.228890  4.369970
135  2 -0.3629  7.862260 15.246700  8.005480
136  2 -0.0585  1.548520 13.615600 21.481700
137  2 -0.5625 12.634300  4.439180 10.180200
138  2 -0.5940  6.311250  4.308230 20.810900
139  2  0.0250 14.105000 22.178500 12.886700
140  2 -0.0656 14.284300 17.610000 16.096700
141  2 -0.7538 10.187600  5.141640 13.262200
142  2 -0.6451  1.094230  4.980680 21.182100
143  2 -0.7736 13.549300 13.843300 10.492300
144  2 -0.3847 12.034700 11.706700 18.016500
145  2 -0.6883  8.625960  7.775270  7.287810
146  2 -0.5176 13.574700  2.137120 13.099100
147  2 -0.1706  2.721850  1.905390  5.175670
148  2 -0.8653  4.090350 19.608900 14.613500
149  2 -0.3805 10.074400  2.922220  1.083060
150  2 -0.6313  7.636400  7.309640 12.406000
151  2 -0.6812  5.787000 22.240200  0.451876
152  2  0.0097 11.681400 18.906600 15.441900
153  2 -0.6263 12.752200  8.400690 17.482500
154  2 -0.6798  2.252140 13.912700 11.319900
155  2 -0.1671 14.372700 22.068400  7.762660
156  2 -0.3787  9.885730 21.501100 17.116500
157  2 -0.5433  2.687200 13.025400  3.164380
158  2 -0.3933 15.515000  6.418390 17.398000
159  2 -0.4974  0.122618 19.532600  3.119590
160  2 -0.3788 17.040500 18.239800 13.308200
161  2 -0.2237 16.116100  9.434790 11.053300
162  2 -0.4856  5.024610 15.473400 22.107200
163  2 -0.6965  6.283530 20.831200 10.027300
164  2  0.0428 12.434700 16.103100 19.707600
165  2 -0.7206  5.700340 10.464200 10.833000
166  2 -0.0804 11.490000 11.504300 21.584500
167  2 -0.5218  4.459270  0.595136  9.001030
168  2 -0.5015 15.277900 21.556500 20.471100
169  2 -0.4029  1.355220 10.758600  8.382740
170  2 -0.5298  7.602860 10.356900 21.076900
171  2 -0.5465 10.590100  2.541890  5.201780
172  2 -0.6260 14.841800 15.322400  0.696433
173  2 -0.5056  4.284670 13.076400 14.403300
174  2 -0.6810 13.143900  7.420600 22.545900
175  2 -0.5187  0.518808 21.477200 11.840500
176  2 -0.3667  8.789190 18.211400 17.474300
177  2 -0.6125  1.186150  7.591160 23.194400
178  2  0.0308 12.292100 19.972500 12.866600
179  2 -0.4179  2.189670 14.591200 24.267300
180  2 -0.4105 16.653300 11.593400  5.570820
181  2 -0.6619  6.900500  0.892510 21.723700
182  2 -0.7718  6.395890  2.341240 15.949900
183  2 -0.4456  8.607590 11.437500  8.636260
184  2 -0.6079  4.906310 10.572400 18.529000
185  2 -0.4704 12.778900 23.478900  5.049930
186  2 -0.3091 13.632100 21.958300 17.428200
187  2 -0.6229  9.414060 14.924100  4.783160
188  2 -0.5242  5.226060 15.143800 18.090700
189  2 -0.4636 16.494000 -0.432284 24.298300
190  2 -0.0233 15.210800 19.659300 15.611800
191  2 -0.6130  1.206410 16.136400  2.827290
192  2 -0.5909 16.198500 13.548600 13.637400
193  2 -0.6898  5.866470 18.427700  7.261740
194  2 -0.4530  4.588070  5.630940 18.145900
195  2 -0.3220  2.161490 22.091600  3.135800
196  2 -0.6387 13.734400  2.369190 17.901900
197  2 -0.6860  6.100610 16.927400  2.269310
198  2 -0.8110  2.555820 10.501700 16.084300
199  2 -0.4167  1.199610  0.682988 10.166500
200  2 -0.4468 16.128700 22.926300 15.264100
201  2 -0.5886 10.761800  9.390210 10.810100
202  2 -0.6251  4.202060  6.598210 21.491400
203  2 -0.5528  2.408590 17.301800  5.684120
204  2 -0.8039  9.423940 20.718300 23.813600
205  2 -0.5499 14.103100 14.877800  5.591530
206  2 -0.6444  4.888870  7.418250 15.377100
207  2 -0.4962 14.532500  3.861660  2.339510
208  2 -0.6273 12.002600 22.307500 21.909800
209  2 -0.3296 12.856000  1.183720  8.421930
210  2 -0.6704  3.209350 21.947900 22.186200
211  2 -0.4375  5.559710 10.067700  2.978440
212  2  0.0600 14.254700 14.114800 19.874800
213  2 -0.7398  8.152800  1.679180 12.920300
214  2 -0.2936  1.417260 16.981700 20.388000
215  2 -0.6188 10.132400 14.207800 11.221800
216  2 -0.0264 10.046300 11.873300 20.338500
217  2 -0.3824 16.215300 19.113500  8.528210
218  2 -0.5304  9.062220  4.432740 23.068000
219  2 -0.4677  1.767730  8.680120  6.037270
220  2 -0.1204 14.424500 12.823500 22.107500
221  2 -0.5948 14.309300  5.537660  6.518030
222  2 -0.5375 14.272300  4.069000 23.238500
223  2 -0.5956  0.822054  9.694750  2.852330
224  2 -0.7630  9.618220  6.642060 19.825800
225  2 -0.5199  5.953120  1.235620  3.341550
226  2 -0.5793  4.348650  7.788750 12.896100
227  2 -0.6523 10.706700 19.322200  5.440010
228  2 -0.6158  1.361770 20.254400 16.723200
229  2 -0.7030  6.256630 22.900300 17.392400
230  2 -0.6193 10.053000  6.450320 16.328100
231  2 -0.6106  9.376270 17.261100  1.203120
232  2 -0.5199  7.552840 20.510600 14.283300
233  2 -0.5051 10.900500  8.612130  4.676600
234  2 -0.7545 11.855800 13.479400 13.724200
235  2 -0.4723  5.177310 12.746700 -0.706511
236  2 -0.1585 14.552800 15.017300 17.404300
237  2 -0.5671 15.182000  8.133300  4.948090
238  2 -0.6476 10.103200  9.396280 15.635600
239  2 -0.6479 12.503200 17.242800  2.698550
240  2 -0.4293  0.982612 16.190700 16.769300
241  2 -0.4173 15.493800  5.852410 10.293800
242  2 -0.4638  0.510132  2.932230 18.001000
243  2 -0.5934  5.783710  9.507420  6.298160
244  2 -0.4630  8.847370 13.566500 23.487100
245  2 -0.4315  1.825790  6.935980  9.608270
246  2 -0.1500  8.636360  7.220450  1.444400
247  2 -0.3587  5.235430 21.524900  6.580300
248  2 -0.7841  7.372000 19.841600  4.190330
249  2 -0.5147  9.557030  6.310710 10.357900
250  2 -0.3380  6.652680  4.113170  1.110720
251  2 -0.2659 11.423600 19.995900 10.624000
252  2 -0.5444 14.506400 20.209600 24.232100
253  2 -0.4249 13.861700 10.703500 13.450400
254  2 -0.5287  1.380390  9.919140 20.345700
255  2 -0.2275 13.940500 18.076800 11.153900
256  2 -0.0777 11.385500 19.408900 20.125500
257  2 -0.3009 11.469100  6.793360  1.016580
258  2 -0.6777 15.827200  8.932950 15.585500
259  2 -0.6280  4.031660 19.439400  2.403270
260  2 -0.7831  3.950550  3.443850 11.472800
261  2 -0.7014 13.276200 11.035900  6.372050
262  2 -0.6518  8.214160 10.728800 13.251200
263  2 -0.5848  3.239790 22.286700 19.039500
264  2 -0.7059  4.463480 23.206900 13.512700
265  2 -0.4570  5.609180 12.902200  5.794430
266  2 -0.3321 10.991100 15.939800 16.633900
267  2 -0.3748  1.250910  5.259260  6.629750
268  2 -0.2974 10.437000 22.588200 13.402300
269  2 -0.6822 14.963600 10.648900  0.774594
270  2 -0.5022  9.166940 17.953400 13.131400
271  2 -0.5003 -0.368785  2.859350  0.472561
272  2  0.0739 12.203600 18.679200 18.117500
273  2 -0.6190  3.015390  2.080080 15.871100
274  2 -0.1247  4.880320  4.186660  2.554840
275  2 -0.5790  2.096130 10.655200 12.496700
276  2 -0.6510  9.069850 11.342500  3.232150
277  2 -0.7471 12.826300  4.252090 15.746500
278  2 -0.3953 15.958600  0.336773  3.977940
279  2 -0.5556  4.428870 16.050900 14.969600
280  2 -0.6508 13.910400 19.734400  4.085910
281  2 -0.8450  9.867940  2.009310 18.750800
282  2 -0.8973 11.168800  0.481873  0.681974
283  2 -0.4437 13.156300 17.989900  7.652800
284  2 -0.5125 13.092300 13.475000  3.279780
285  2  0.0361 14.401500 21.249200  9.762690
286  2 -0.7042  1.091380 19.265400 24.328100
287  2 -0.7724  3.239560 18.572100 11.305400
288  2 -0.3230  1.682950 11.475900 23.224500
289  2 -0.4540  5.396910  3.588010  6.452840
290  2 -0.6348  3.898160  2.799270 24.017800
291  2 -0.7684  4.723600 15.967200  9.539600
292  2 -0.4986  6.579370 14.384000 12.256300
293  2 -0.6689  8.646920 22.235900  5.410770
294  2 -0.6548 11.839000  3.762670 20.617500
295  2 -0.4924 11.297000 15.058800  8.025680
296  2 -0.5570  7.611240 15.242400 14.881900
297  2 -0.5640  9.194360  5.426750  4.547310
298  2 -0.4893  7.020340  8.478920 17.866800
299  2 -0.3111 16.209400  1.629850  7.539190
300  2 -0.1507 11.660600 15.105900 22.354600
301  2 -0.5359  1.538340  4.509090  3.051550
302  2 -0.6781 15.750100  7.344550 20.612200
303  2 -0.5095  2.436480 13.509500  6.716660
304  2 -0.5533 15.872500 11.578300 17.359800
305  2 -0.4614  3.328980  7.470410  1.687470
306  2 -0.5253  1.326360  5.960790 17.824700
307  2 -0.2242  2.099990 22.020300  6.299300
308  2 -0.6396  4.657040 18.205300 18.849500
309  2 -0.6491  5.381120  6.299790  9.380850
310  2 -0.5966  5.454490  9.101680 23.760700
311  2 -0.5585  9.385410 17.992900  8.985450
312  2 -0.6749  5.991440 18.816700 22.634100
313  2 -0.4958 13.345000  7.674230 12.350600
314  2 -0.5910  8.303580 12.835300 17.698700
315  2 -0.5435  9.366640 22.239300  9.336250
316  2 -0.6461  7.882990 20.122100 20.081700
317  2 -0.5349 13.671000 10.171500  9.490940
318  2 -0.3507 11.018800  9.282410 24.096500
319  2 -0.5259 16.444400 15.868600 10.497000
320  2 -0.3918  8.242090 14.936700 20.630100

