Generated by pymatgen.io.lammps.data.LammpsData

216  atoms

  2  atom types

0.000000 18.096178  xlo xhi
0.000000 18.140645  ylo yhi
0.000000 18.233787  zlo zhi

Masses

1  208.9804
2   78.9600

Atoms

1    1  0.7325  0.712750 18.173400  0.369768
2    1  0.7172  0.168336 17.929600  6.905430
3    1  0.8241 17.910000 17.785100 12.499200
4    1  0.7524  0.542716  6.474850  0.275549
5    1  0.7272  0.865752  5.850650  6.948230
6    1  0.7766  0.125045  6.055840 12.775700
7    1  0.7766  0.554287 12.494000 18.165300
8    1  0.9156  0.624219 12.578900  6.133680
9    1  0.7592  0.664651 12.077700 11.995500
10   1  0.7912  6.239780 18.101900  0.731579
11   1  0.8264  6.199620  0.236326  6.262250
12   1  0.7459  6.006210 18.023200 12.603700
13   1  0.5578  6.750100  7.204410  1.602480
14   1  0.9296  6.484430  5.821360  7.289450
15   1  0.7932  6.169400  6.582980 12.733300
16   1  0.7787  6.029650 12.606900  1.083790
17   1  0.6467  5.962950 11.906800  6.244570
18   1  0.8502  6.866290 12.360200 12.757100
19   1  0.8542 12.516500  0.103834  0.290605
20   1  0.7723 12.388600 17.499000  6.617670
21   1  0.8093 12.350500  0.220505 12.814100
22   1  0.7473 12.578000  5.769020  0.177382
23   1  0.7060 12.435700  5.499820  6.061900
24   1  0.7068 12.546900  5.899030 12.268700
25   1  0.8143 12.607900 12.246100  0.333559
26   1  0.7406 11.984300 11.468000  5.444100
27   1  0.8264 12.770800 11.829500 12.886500
28   1  0.8384  0.848589  3.070210  3.297600
29   1  0.6603  0.392786  2.869830  9.976230
30   1  0.8314  0.452513  3.264600 15.574300
31   1  0.7458  0.625524  8.851140  2.859980
32   1  0.8833  0.879585  8.866560  9.728470
33   1  0.8871  0.333266  8.965060 15.194000
34   1  0.7516  0.534726 15.091700  3.493970
35   1  0.7517  0.170841 14.691200  9.713870
36   1  0.7139  0.548494 15.746100 15.310800
37   1  0.7830  5.943350  3.119020  3.884990
38   1  0.8132  6.727540  2.646710  9.667950
39   1  0.8214  6.288030  3.058800 15.750600
40   1  0.7812  5.954140  8.913180  3.568410
41   1  0.7378  6.123890  9.711170  9.726220
42   1  0.7752  6.493450  9.151220 16.003400
43   1  0.7435  6.225400 15.131200  3.679380
44   1  0.8993  6.148510 15.010000  9.832340
45   1  0.7438  6.705670 14.730500 15.729200
46   1  0.6902 11.304600  2.902100  3.880530
47   1  0.7461 13.042000  2.643950  9.658630
48   1  0.7564 12.690500  3.603390 14.979300
49   1  0.5721 11.326400  8.409860  2.519140
50   1  0.7745 12.755800  8.661720  9.594740
51   1  0.8507 12.361000  9.085890 15.699900
52   1  0.8320 12.508900 15.236100  2.948670
53   1  0.7650 12.570800 14.807900 10.083300
54   1  0.8065 11.987200 14.673200 15.652500
55   1  0.6867  3.208420  0.311582  2.745900
56   1  0.7917  3.749890 18.187200  9.593330
57   1  0.7530  4.041820 17.450400 15.137700
58   1  0.8309  3.092460  6.404230  4.159850
59   1  0.8590  3.119540  5.617050  9.736490
60   1  0.7399  3.643610  6.405550 15.667100
61   1  0.8069  3.215020 12.055000  3.549530
62   1  0.8187  3.387180 12.119000  9.377300
63   1  0.8605  3.446580 11.896800 15.911700
64   1  0.7279  9.544360 17.683300  4.194580
65   1  0.7475  9.623110 17.792100  9.494600
66   1  0.6857  9.772680 18.053500 15.456200
67   1  0.7063  9.042600  6.090630  3.638940
68   1  0.7744  9.069010  5.529370  9.569850
69   1  0.8296  9.313820  5.979500 15.709600
70   1  0.8188  9.150580 11.443700  3.255820
71   1  0.6974  9.001410 12.057600  8.795940
72   1  0.7835  9.120290 12.277800 15.713700
73   1  0.8623 15.380300 17.960600  3.303480
74   1  0.7741 15.739900 17.488400  9.492770
75   1  0.9088 15.453600  0.119980 15.592500
76   1  0.7828 15.681000  5.325880  3.746310
77   1  0.7203 15.198000  6.391740  9.546840
78   1  0.7163 15.392400  5.980600 16.101500
79   1  0.7470 15.517500 11.994900  2.941130
80   1  0.7568 15.701900 11.817000  9.290150
81   1  0.8217 15.653200 11.703200 15.658100
82   1  0.7344  3.087980  2.570460  0.296168
83   1  0.8327  3.616190  2.734420  7.143920
84   1  0.7956  3.350100  2.362980 12.360200
85   1  0.7350  3.596520  9.364340  0.517534
86   1  0.7710  3.055390  9.824270  6.631350
87   1  0.8216  3.749560  8.961380 12.544700
88   1  0.7581  3.326130 14.709500  0.421444
89   1  0.8082  2.896600 15.670500  6.386350
90   1  0.8154  3.245370 14.919500 12.400400
91   1  0.7981  8.658620  3.120880  0.776441
92   1  0.6361  9.397010  3.211840  6.604400
93   1  0.7388  8.509080  2.060790 13.170500
94   1  0.7900  9.009290  9.292090  0.479600
95   1  0.7349  9.507290  8.828830  5.700670
96   1  0.7667  8.849820  8.704450 12.493700
97   1  0.7718  9.440120 15.510300  0.271604
98   1  0.7094  9.097410 14.733200  6.329360
99   1  0.8169  9.442660 14.384700 12.610600
100  1  0.8005 15.842500  2.786540  0.293490
101  1  0.8374 15.620700  2.366560  6.181380
102  1  0.8550 15.690300  2.864890 12.240200
103  1  0.8776 15.565400  9.203270  0.441844
104  1  0.7329 15.320400  8.944320  7.053920
105  1  0.7069 15.456500  8.521850 13.477300
106  1  0.7660 15.859600 15.373200  0.160090
107  1  0.8733 15.470600 15.141100  6.185400
108  1  0.6905 15.690300 14.647200 11.773600
109  2 -0.8444  3.531020 17.814000  0.239955
110  2 -0.8135  3.543330 18.147800  6.640840
111  2 -0.8590  3.089150 17.869100 12.486500
112  2 -0.7432  3.197860  6.281060  1.362420
113  2 -0.6987  3.950190  5.672940  7.143280
114  2 -0.7153  2.884500  6.289580 12.995100
115  2 -0.9339  3.189350 12.109800  0.364231
116  2 -0.9044  3.033860 12.293800  6.575100
117  2 -0.6400  3.546480 12.242600 13.005400
118  2 -0.6947  9.665910  0.297572  0.800774
119  2 -0.8340  8.782140 17.440500  6.805050
120  2 -0.7007  8.877710 17.505800 12.411000
121  2 -0.7509  9.470680  5.782710  0.438059
122  2 -0.8015  9.424440  6.177750  6.523480
123  2 -0.6367  8.916110  5.709800 12.394700
124  2 -0.7379  9.653360 12.009600  0.979024
125  2 -0.8823  9.265850 11.850900  6.039170
126  2 -0.7678  9.473450 11.770900 12.982100
127  2 -0.8158 15.122400  0.191503  0.219663
128  2 -0.7799 15.138200 17.730900  6.035200
129  2 -0.7130 15.145400  0.132045 12.570300
130  2 -0.8227 16.044300  5.704710  0.229810
131  2 -0.7270 15.428600  5.535500  6.482810
132  2 -0.9015 15.457000  5.694660 12.092900
133  2 -0.8209 16.028200 11.763600 18.155500
134  2 -0.6180 15.159700 11.958400  6.639330
135  2 -0.7379 15.796500 11.556600 12.937300
136  2 -0.7456  3.170560  3.310130  4.031840
137  2 -0.8830  3.889120  2.914010  9.690410
138  2 -0.6823  3.538350  2.682300 15.669700
139  2 -0.8673  3.079660  9.409610  3.736740
140  2 -0.8400  3.348400  8.906170  9.796010
141  2 -0.7691  3.094300  8.992510 15.870300
142  2 -0.8156  3.171170 15.592700  3.235000
143  2 -0.7600  3.260870 14.793600  9.662330
144  2 -0.7882  3.774570 14.932500 15.281100
145  2 -0.8551  8.671580  3.363480  3.916160
146  2 -0.6978  9.348250  2.754920 10.579300
147  2 -0.7119  9.163920  3.226190 15.669700
148  2 -1.0620  8.587870  8.897780  3.030030
149  2 -0.6710  8.411640  8.725950  9.883740
150  2 -0.7893  9.903040  8.859680 16.481600
151  2 -0.6671  9.189670 14.679200  3.219930
152  2 -0.7178  9.249710 14.874700  9.623830
153  2 -0.9190  9.415370 15.054900 15.260200
154  2 -0.7148 15.560800  2.581580  3.542640
155  2 -0.7915 15.606400  2.359270  9.476140
156  2 -0.7639 15.289800  2.752310 14.925500
157  2 -0.6756 15.843900  9.166620  3.460770
158  2 -0.7996 15.633400  9.253090  9.915780
159  2 -0.8549 15.680300  8.739250 15.991500
160  2 -0.8170 15.401200 15.314400  2.804860
161  2 -0.9049 15.598800 14.910500  9.172640
162  2 -0.6672 15.335300 15.409800 15.593600
163  2 -0.7485  0.255939  0.137669  3.684550
164  2 -0.8511  0.423241 17.940500  9.794120
165  2 -0.6990 18.069500  0.482358 15.394300
166  2 -0.7575  0.457548  5.553770  3.684700
167  2 -0.8864  0.789875  6.384880  9.695610
168  2 -0.8084  0.294356  6.224460 15.536600
169  2 -0.8216  0.608823 12.358000  3.592060
170  2 -0.8011  0.553070 12.133900  8.911370
171  2 -0.6336  0.632518 11.770800 14.949000
172  2 -0.7897  6.808580 17.951900  3.718370
173  2 -0.7816  6.230480 17.841900  9.976210
174  2 -0.7785  6.476650 18.141400 15.994800
175  2 -0.7224  5.855450  6.137070  4.298550
176  2 -0.6727  6.007480  5.635470  9.872220
177  2 -0.8160  6.438420  5.972620 15.215600
178  2 -0.8972  5.901310 11.393500  3.532630
179  2 -0.8800  5.750390 12.465900 10.045400
180  2 -0.7728  6.530280 11.920500 15.359700
181  2 -0.7723 12.312200 17.924800  4.025280
182  2 -0.7650 12.777200 17.582800  9.686060
183  2 -0.7554 12.492000 18.130700 15.514100
184  2 -0.7907 12.213300  5.659070  3.241600
185  2 -0.7907 12.386200  6.179750  9.462310
186  2 -0.8598 12.264000  6.048050 15.813200
187  2 -0.7615 12.528700 12.569600  3.029630
188  2 -0.6281 11.827100 11.886800  9.849870
189  2 -0.7907 12.269800 11.948400 15.506400
190  2 -0.8723  0.252574  2.745910  0.107904
191  2 -0.6995  0.829511  3.083990  6.308800
192  2 -0.7686 18.180800  2.625460 12.828600
193  2 -0.7178  0.271280  9.316650 18.161300
194  2 -0.6905  0.619291  9.280790  6.682530
195  2 -0.7195  0.864861  9.275240 12.304200
196  2 -0.8829  0.651640 15.422700  0.318326
197  2 -0.8484  0.004050 15.059000  6.681500
198  2 -0.8869 18.212600 15.034500 12.715700
199  2 -0.7619  5.818170  2.851780  0.435479
200  2 -0.8556  6.679280  3.080610  6.946400
201  2 -0.7206  5.793840  3.074290 12.581200
202  2 -0.8666  6.333920 10.030000 -0.029274
203  2 -0.6585  6.721200  8.729150  6.911540
204  2 -0.8595  6.360880  9.426000 13.067600
205  2 -0.8033  6.928800 15.135400  0.637610
206  2 -0.6876  5.693800 15.297900  6.515560
207  2 -0.7404  6.596960 15.106100 12.439900
208  2 -0.6101 12.227100  2.750530  0.553881
209  2 -0.7593 12.794500  2.432480  6.702970
210  2 -0.7400 12.009600  2.925530 12.491000
211  2 -0.7843 13.127800  9.595960  0.183482
212  2 -0.7364 12.488400  8.703890  6.621910
213  2 -0.7657 12.599800  9.128130 12.739800
214  2 -0.8152 12.445800 15.246800  0.239293
215  2 -0.6458 12.816800 14.590900  6.259250
216  2 -0.7596 12.688600 14.779000 12.742400

