135
Lattice="12.574 0.0 0.0 0.0 10.89 0.0 0.0 0.0 29.928" Properties=species:S:1:pos:R:3:forces:R:3 energy=-519.63370847 stress="28109.77545 1317.26446 -5475.09299 1317.25735 11737.219659999999 -2400.90101 -5475.1012 -2400.8974799999996 26859.239410000002" 
Bi 10.7964299662 2.5432699842 2.35956003216 0.56062631 -0.21150679 -0.06951193
Bi 2.3583700095 3.1268800035 20.526339967920002 0.14401841 -0.24993916 -0.32500651
Bi 0.08172006061999999 7.6501200204 19.119570138 -0.07075488 -0.24788406 -0.19667665
Bi 10.39514006096 10.024600014 2.17529004408 0.39743086 0.43508534 -0.35454764
Bi 7.30166999512 1.0148100237 0.92475006048 -0.17263212 0.03366271 0.33542076
Bi 9.48673004782 1.4904900153 24.90079990656 0.33735905 0.31160288 -0.06991259
Bi 9.07223995738 2.5287000354000004 18.17591007072 0.0826595 -0.15465748 0.64250649
Bi 0.38058002428 2.1067899633000002 13.74388990896 -0.01129132 -0.17629657 0.1207947
Bi 9.65646006108 1.955710053 11.28504014544 -0.56380956 -0.22804038 -0.42064347
Bi 7.954480011419999 4.9032699804 1.78093986144 -0.04557188 0.22858489 0.0583858
Bi 4.7561400193 10.1620299627 1.4170599741599998 -0.32020555 -0.27919614 -0.11573794
Bi 3.29121004724 7.3447900119 14.341150135920001 0.03651407 0.97291496 -0.06756801
Bi 12.07151994958 3.6170399925 18.64683014352 -0.2533606 -0.95977872 0.20006401
Bi 12.28083995628 0.8524899999 5.18954991648 -0.41678481 -0.4825243 0.21942953
Bi 10.1958800087 9.6146499933 12.3849501108 0.00177273 -0.33123387 0.0308281
Bi 5.93117994208 2.6200300005000003 15.36515012352 -0.1713707 0.17966329 -0.19735581
Bi 0.39362995017999997 10.2857900211 26.498950018800002 -0.3833864 -0.11382335 -0.55476003
Bi 8.454920056079999 7.214719960800001 8.553370026 0.38522575 -0.01290819 0.06772836
Bi 9.27924006108 5.528780037000001 17.07117990168 0.07889731 -0.01938858 -0.17715069
Bi 10.427579975039999 6.3795499614 3.78135012672 -0.02163699 0.31156791 -0.08372761
Bi 0.17198000482 7.4855600325000005 12.38469003648 -0.23517758 -0.2092521 -0.41687828
Bi 7.430829997379999 10.6934299461 15.27594014256 0.05891402 0.24463952 0.1765858
Bi 3.2196500301 10.1144600469 20.97243985248 0.00285673 0.02815175 0.01481791
Bi 2.7979300154 9.2617099938 11.541810114959999 -0.15953061 0.25833847 0.14763375
Bi 7.12228993982 0.46967001840000006 7.86722004768 -0.20805875 0.46881671 0.31167108
Bi 4.96149997044 3.4513099830000002 0.43781012784 -0.20517746 -0.0892258 0.30100417
Bi 4.68567004222 6.4346800419 2.0907700800000004 0.35415725 -0.58895385 -0.13435833
Bi 4.2044400518 4.2034099734 4.625129983200001 0.50569129 0.25889691 -0.44902845
Bi 12.442040019419998 0.49430995020000007 10.9458098568 0.57405273 0.03823319 0.20906792
Bi 5.1790199855 8.8779000024 8.03231995464 0.00734972 -0.10682845 0.51390336
Bi 5.08133999816 4.8019700025 7.8909098553599994 0.46739381 -0.19782725 0.17494239
Bi 8.1103400225 4.1175400365 9.187049935440001 -0.17056101 -0.13997045 0.36286819
Bi 0.02273995326 0.40875996150000005 19.0971301236 -0.18542315 -0.47411816 0.05225113
Bi 4.37057000312 1.2405400128000001 5.95737999096 -0.5415265 0.1997009 -0.22878812
Bi 1.31375000378 3.3777600120000004 6.421070057520001 0.07553879 0.0771364 0.08833663
Bi 11.05992995576 5.9036299542 0.46899001608000007 0.65517298 0.19603629 -0.98631441
Bi 6.5912599937000005 9.9425599812 23.21838990456 0.56467911 -0.12338729 0.0885228
Bi 11.27489996362 1.9972699956 8.26296996288 -0.21002166 -0.70933975 0.15930261
Bi 9.58496995538 8.8284199806 17.965149912 0.23067729 0.23615762 -0.0810749
Bi 3.0994300161 1.0666500174000002 28.5361400004 0.03842356 0.0898228 -0.47841731
Bi 6.435229982139999 7.431690033900001 16.73999006952 0.14882798 -0.26783417 0.20110072
Bi 5.70174995996 2.0914300539000004 21.70921005 0.10920252 0.72704486 0.32784152
Bi 6.13380001862 4.215389953500001 18.2514800664 -0.30005904 0.00889761 -0.03343911
Bi 2.8408299886 4.0938500394 13.16271987264 -0.12021075 -0.07404723 -0.0886671
Bi 3.57695998128 9.000559953 4.50199990632 -1.06732571 -0.14035806 -0.69821532
Bi 10.9084699645 5.651489972699999 6.876309953280001 0.08814996 0.52150659 0.21461761
Bi 3.9780699525800003 6.5584399914 10.32037989984 0.02624376 -0.06722671 -0.10164057
Bi 3.2711899759199996 0.6197600277 13.80905992464 -0.30912074 -0.42247885 0.12980879
Bi 8.92453003588 3.4769699811 14.51553011712 -0.68148131 0.56128175 0.18270128
Bi 10.2381500245 9.401829990300001 5.84217006 0.96762534 -0.01989521 0.2587352
Bi 0.40146003146 8.7008400369 4.0566999972 -0.16670759 -0.18697784 0.13933686
Bi 3.1844699899399997 7.012519994700001 18.82463987352 -0.16626753 0.07168901 -0.23929887
Bi 9.70021003668 6.3341299494 11.339120041440001 0.45491056 0.42087143 0.2459568
Bi 9.06456994312 7.697419973100001 14.693259939359999 0.00238934 0.13178485 0.08445497
Se 0.15752003056 4.3364300166000005 8.87458994352 -0.90831854 -0.39489258 -1.0902155
Se 8.5551999694 3.3732400086000003 27.28255005432 0.90605737 0.47626841 -2.12216056
Se 12.55837001504 7.965480045600001 7.50702998352 0.08245998 0.12313421 -1.09797609
Se 5.20963000536 2.2593900087 12.50976992256 -0.24052569 0.29700531 0.42848831
Se 6.00214998714 8.5994000136 3.3345699787200003 1.10393022 -0.17210098 0.20830746
Se 7.60171996214 3.2870399958000003 29.2444100628 -0.47862746 0.12762852 1.5828099
Se 6.57079002466 6.922990037700001 6.58326006504 -0.297299 -0.0540988 -0.80050769
Se 3.900699993 8.6951799594 16.6825899612 -0.18082615 0.17626118 0.0048738
Se 0.16030994968 8.8530399837 1.10242002672 -0.82905556 -0.62589314 1.05291035
Se 9.3083699954 3.380440041 6.82121011104 -0.4765682 -0.60422725 -0.39319308
Se 12.23459995146 9.391200043500001 16.84666004568 -0.22429442 0.08230418 0.54128025
Se 1.42046000922 5.140519956 10.68566011824 0.97955176 0.54017956 1.73820843
Se 5.1522299468399995 5.9325800391 12.854960073119999 -0.91777282 -0.51359596 -0.30738999
Se 11.342779948179999 7.633459953900001 26.846479940400002 1.16298756 -0.19633994 0.86000443
Se 1.80701004296 6.0132100347 27.7016500944 -0.09964507 0.30074592 -0.44404271
Se 2.81866001476 5.736819983400001 6.34509992448 -0.28376513 0.80287063 0.01977734
Se 0.9408399937599999 6.056190033300001 14.78756007456 0.19980375 -0.27082594 -0.98923108
Se 1.33234996754 6.499109964600001 23.43304010472 -0.24827691 -1.1754083 0.16938161
Se 9.82176000266 1.2315100248000002 15.791320055039998 0.51211676 -0.71340431 0.09112765
Se 7.83089997314 3.9866800248000005 20.77389989472 0.01763793 -0.65860811 -0.68925816
Se 6.63897002486 5.7960599499 24.756549939360003 1.12144912 0.22394522 0.11088271
Se 10.93412997778 3.8786500269 12.71596007568 0.59576817 0.73618821 -0.23745909
Se 3.9634100517200004 1.015069968 16.581160078560004 0.74640495 0.12748436 -1.37259332
Se 12.19543005536 5.5465199559 16.72130990976 -0.72406675 0.365625 0.68050594
Se 7.030000049060001 3.6134200476 24.27677985768 0.32653815 -1.03996156 -0.25819693
Se 3.4577500367 2.4040599561000002 8.489969952240001 0.12349645 0.22838432 -0.48096212
Se 2.6790500125800003 4.2393699513000005 28.865749933440004 -0.14246879 -0.23413345 0.24570281
Se 9.0001900572 0.3522999942 22.29757986528 -1.08593009 -0.18096475 1.82703363
Se 11.46101000094 3.1194999594 29.405979962160004 -0.89503216 0.15362908 0.74889945
Se 5.90601999678 10.7061100443 20.11654005384 -0.30078345 -0.03103804 0.84471302
Se 1.37792002964 3.7568699883000005 24.4519900416 0.36199295 -0.53352963 0.60014418
Se 6.15166000248 5.5965400128 27.0503000952 -0.75885016 -0.28268593 0.26723946
Se 8.173910017079999 2.4938100000000003 3.39516011256 0.20379744 0.5007697 -0.87779595
Se 0.9045900319399999 0.7007699754 21.928119902400002 0.7641818 0.39334894 -1.17553254
Se 2.55695005984 1.1748999933000002 10.33437004272 0.21092438 -0.14131155 0.46130369
Se 4.27483005824 6.0035599701 23.95282003176 -1.31905355 0.6499973 0.30231719
Se 6.783250010640001 2.0458699965 10.650339990480001 -0.11918914 -0.28519239 -0.65527066
Se 6.9604200597000006 1.3371700320000002 5.12285985768 0.0152331 -0.89430797 0.83761583
Se 0.48793997978000003 8.8048600101 9.63680013816 -0.02614777 -0.10949141 0.51599529
Se 5.9402600047 6.796669958100001 19.66370996064 0.03837862 -0.01294622 -0.92274302
Se 11.64461001638 6.694110007200001 23.4209001108 -1.33799771 0.42082193 0.19635098
Se 9.40175005196 6.7814100189 26.09314010568 -0.59527188 -0.44080615 0.54908568
Se 1.8446000159599998 7.574310047700001 21.39979014432 0.33127126 0.63322378 -0.91349654
Se 3.4532200017199997 4.1532800364 25.55835996576 0.15043283 -0.04135303 -0.38756934
Se 4.29260001226 4.5886900059 22.1005201464 -0.26246487 -0.36971128 -0.76840443
Se 7.4844999788 5.825820033 13.0818101232 1.78440496 -0.010741 -0.07836725
Se 7.0399600402 10.0117099566 18.14645014464 0.12647055 -0.03632365 -1.16924188
Se 5.82529994638 0.2757699747 27.77070985224 -0.7743386 0.03642614 1.95802432
Se 4.17211003448 0.34451996040000005 23.61354993888 -0.24275373 0.07294234 -0.86034558
Se 0.20678999216 2.2469099598 27.74351996496 0.61528404 0.04275476 -0.86106548
Se 1.77593994044 8.2014799581 24.83496997848 1.06627596 1.19571803 1.31876067
Se 8.76761997006 5.8245900075 21.89193006696 0.13490272 -0.25222945 0.91183035
Se 9.411869984379999 9.8793400464 8.43135985488 -0.00629002 0.78536428 0.73186625
Se 7.0273800046799995 0.1534600287 25.886910148320002 0.86643192 -0.15872177 -1.54775856
Se 3.2201800242 4.4676300141 17.87064985776 -0.06802158 -0.273465 0.00106536
Se 2.3668700334999997 4.955569967700001 2.6639601144 1.00355119 -0.10825131 -0.08100631
Se 7.332169992479999 9.6511799538 12.53343997776 0.60623468 0.31400885 0.67377385
Se 12.17939996572 4.0512499929 21.3799900788 0.75557951 0.05906358 -0.47259513
Se 10.163669947339999 10.766630021400001 27.288069974640003 0.63385088 -0.16858143 -1.60353516
Se 2.88852996056 0.658980036 25.546720068720003 -0.62330973 0.30815208 1.34687068
Se 12.2465799557 0.5131300482000001 23.85807995496 -1.06491457 -0.13336272 1.32276822
Se 2.91480999778 9.992149992 6.91765009824 -0.80208097 -0.15983303 1.01226224
Se 9.01826002686 8.2689199857 24.43013003184 -0.06519111 0.71044428 -1.23899637
Se 9.87272996906 0.5048599644 20.22521011824 0.6253075 -0.07782933 -2.05349336
Se 8.56515002708 8.6448399543 3.8044300017600006 -0.28395274 -0.16410665 -0.23361899
Se 4.5590800398199995 7.931149974 29.496480139200003 0.13689957 0.09631992 0.52806695
Se 8.62415000136 6.9806900493 29.75074004736 -0.7793006 0.60283992 0.00523483
Se 0.9415900328599999 1.5615100215000002 2.77300996512 -0.44906142 0.09323152 0.20078911
Se 2.82140994856 0.9208500147 18.607839945120002 -0.82890537 -0.13731793 1.49991605
Se 10.7430200151 3.7212100299 23.136579920880003 -0.76900549 0.09394169 0.74374503
Se 4.22459001254 7.5161400237 27.26030995896 -0.09451299 -0.49451064 -0.65454882
Se 1.23587997622 9.620640037800001 29.13910001496 0.98179205 0.52294945 -1.20970628
Se 9.36855997304 10.6538199669 29.39630004984 -0.30004916 -0.14338809 1.37467111
Se 2.88034994486 1.3336400385 1.50017003016 0.73824821 0.82259962 -0.39301749
Se 9.98909995 6.8221400346 19.969660014 0.22135274 0.16183671 -0.05934864
Se 5.63448999934 9.104010052500001 11.036679943920001 -0.46164119 -0.21401696 -0.86461981
Se 7.74302996912 7.9750800162 27.821860096320002 0.1674775 0.32980006 0.34118761
Se 0.02552999812 5.018709969900001 2.51572014624 -0.78921959 -0.62305682 0.8606572
Se 12.49487005764 4.4772799698000005 26.15749009416 -0.21073712 -0.20137501 0.33854901
Se 0.60572994254 10.5083900064 14.981700017760001 0.58897431 -0.07831362 -1.16347537
Se 6.72520000206 7.4960099676 21.734740130400002 0.15875788 0.07685417 0.98184148
135
Lattice="12.574 0.0 0.0 0.0 10.89 0.0 0.0 0.0 29.928" Properties=species:S:1:pos:R:3:forces:R:3 energy=-506.94013678 stress="-448.56219000000004 -2661.24389 1877.81934 -2661.2457 -1076.53934 648.3775499999999 1877.82404 648.3736 3499.59333" 
Bi 11.13594003724 8.8514500437 26.094500034 0.09771385 -0.26995388 0.07323262
Bi 12.08649998448 10.3500499509 15.983860047359999 -0.37031506 0.04118023 0.03497554
Bi 8.77577005964 5.534090001000001 21.243140108880002 -0.29700771 -0.4886018 -0.04339823
Bi 4.201140005499999 9.590369976 19.07880012144 0.11281198 -0.22856495 -0.12006393
Bi 2.8458199805 0.7012700442 21.44992014288 -0.09494427 0.14596566 -0.35677395
Bi 3.2543100096199997 6.4421900037 19.446950135759998 -0.14171327 0.01814639 0.31806067
Bi 0.7442399712 9.7992900522 12.726419911679999 -0.25532476 0.11061582 -0.04294402
Bi 3.0743700340999998 0.8665900452 11.6180301468 0.03136584 -0.48813484 -0.32211638
Bi 10.309940020099999 4.4000300124 13.64739006576 -0.03152996 -0.1884131 -0.10781657
Bi 2.83735994182 5.466409957800001 22.55213007504 0.1437154 0.22203916 -0.22079377
Bi 9.3662399443 9.051120045 12.699669966 0.17487352 -0.32997183 0.67873722
Bi 3.96160002442 4.3724399796 11.44712001792 -0.13649631 0.19561512 -0.19298196
Bi 11.688200050699999 1.1859300387 25.422790016400004 -0.22547442 0.1870587 -0.2477917
Bi 4.70933996852 4.125480044400001 17.24472997944 -0.18683264 -0.24366136 0.09685055
Bi 3.7465700385800003 7.538129982900001 26.00219998704 -0.16691643 -0.25945121 -0.06232704
Bi 2.61841994494 8.30699001 15.281970036000002 0.13564015 0.17260327 0.01575921
Bi 10.684890035879999 7.3137699558 19.267389917040003 -0.00619077 0.20336382 -0.23883269
Bi 5.56064000532 4.6364499522000004 25.67472002976 -0.07598764 -0.10235792 0.40460816
Bi 9.06541001206 4.6788300207 18.05503985712 0.00594426 -0.04756814 0.1153098
Bi 7.9404099569 9.967119980400001 24.582380052719998 -0.41131636 0.15862607 0.46906458
Bi 6.89466005154 2.2461599655 24.00065993976 0.4068706 -0.13943477 -0.05631916
Bi 7.78849000872 6.1355500371 12.55822006248 -0.02971714 0.20754955 0.09995248
Bi 6.46774005914 6.2937400284 19.050780031440002 -0.00073045 -0.01470451 -0.17959603
Bi 4.7398799512 10.6755999669 25.079649933840003 0.2776978 -0.32134331 -0.23640217
Bi 9.99530999712 3.5548199775000002 23.651380128 -0.45530264 -0.20309506 0.04080908
Bi 11.29156001066 2.7271600488000005 16.3369200648 0.40159767 -0.07154536 0.01227751
Bi 4.4498600125 3.4058299671 20.501169921360002 0.19222492 0.03169248 -0.17951057
Bi 9.67383996962 6.7928900391 24.170149985040002 0.05570438 0.0169267 0.03193045
Bi 2.49448003878 0.776639952 14.936960052 -0.02109377 0.13006165 -0.03556081
Bi 7.80323000596 0.7217399772 14.188760052 0.2945152 0.20036043 0.29517302
Bi 0.02690999462 6.729829969500001 13.871830014 -0.38502693 -0.01976014 0.29104475
Bi 5.935270012799999 10.3301700381 21.862579976640003 -0.08224697 0.20453106 -0.26664518
Bi 11.93449993992 5.8515099786 21.969260128320002 -0.01250147 0.24667142 -0.0459981
Bi 7.53436003822 4.0964000418 15.237470092799999 0.19813995 -0.03622595 0.07555803
Bi 2.8851400101599998 7.457980018500001 12.061459855199999 0.13732516 -0.00984266 -0.4023213
Bi 7.79117003108 9.2951699544 18.754540117679998 -0.1153197 0.00378368 0.10851038
Bi 6.20186006286 8.945790004800001 13.196589988800001 -0.00278171 0.13399896 -0.03352245
Bi 11.199590002459999 0.6705399888 22.26214990176 0.08851106 0.05562554 0.27013436
Bi 1.00612005234 8.520290044200001 18.278959956 0.02193571 0.05219638 0.07520496
Bi 10.78671994618 10.621149966900001 19.137540106320003 0.26672662 -0.02535314 -0.43761566
Bi 1.5734800566599998 5.493229958700001 16.73092996608 -0.12094341 -0.13595563 0.04949206
Bi 3.62786003624 2.6017300089 24.03704999352 0.41029083 0.28892767 0.29664457
Bi 8.55827003724 1.4656199778 17.405920092480002 -0.29677819 0.13292863 0.0646421
Bi 2.62166001326 1.5681999663000001 18.25685992368 -0.31172008 0.26189201 0.15183359
Bi 10.88775002434 1.1476800027 13.281950031840001 0.00216226 0.09699372 -0.02403661
Bi 5.78865993908 8.2526700366 16.39182986424 -0.18188148 0.17439686 0.09554188
Bi 5.420670009519999 0.7738799904000001 16.6551399996 0.03169566 -0.14327707 0.03688165
Bi 0.88246004342 3.5540900208 13.969409958720002 0.27642784 -0.07721854 -0.01268113
Bi 5.1108399853 2.3574299562000003 13.6558501128 -0.07017062 0.07468161 0.15049282
Bi 0.6694699376000001 6.5161999683 24.89643011928 0.69531616 0.26681553 -0.35999344
Bi 1.55009996106 9.732200029200001 25.07640005232 -0.26283531 0.04340645 -0.26995159
Bi 9.11599005872 8.9890000002 21.77146986696 0.17401457 -0.04022827 -0.04566465
Bi 4.913449938319999 5.905070047800001 14.164949933760001 0.0270648 -0.06455752 0.28545774
Bi 0.57552002736 3.1269299885999997 23.19867004608 0.01644496 -0.06500737 -0.29984295
Se 3.9128699903800004 0.9922399542000001 4.061349910560001 0.21631258 -0.24384292 0.17755294
Se 8.89295999112 3.8120800014 5.33166003168 0.11691575 -0.32906201 -0.17818722
Se 9.383670023099999 0.042640012799999995 26.781889929360002 -0.12641461 0.08092501 0.07403137
Se 7.4115399725 4.3348000014000005 10.3495198956 -0.06852262 0.18282484 0.52438346
Se 8.11423997434 6.4328800338 7.2091200873600005 0.03571351 -0.47262927 -0.2137995
Se 12.519069978040001 2.5949999889 5.5105498632000005 -0.00570988 0.01129155 0.18231008
Se 0.65054996554 4.910780051100001 29.69930997648 -0.46242191 0.40040751 0.53608077
Se 5.294210022280001 9.054120022200001 1.162770138 -0.2372309 0.08610698 -0.33634943
Se 4.3646799643 6.3152400465000005 3.214169934 0.26010334 -0.24834205 -0.09416245
Se 12.48306998734 10.3848400161 0.04708003608 -0.3280836 1.41501669 -0.59801502
Se 10.40603002514 3.4141500360000006 27.618819865200003 0.52281034 0.20093357 -0.69631329
Se 10.187779963639999 8.4466000278 2.5305799968 -0.20387574 -0.63793289 -0.06984118
Se 11.59663002144 5.5614199806 6.16880006208 -0.07957991 0.19243558 0.24603192
Se 4.41006003326 0.18357000750000002 28.09875993792 0.52164888 0.11452975 -1.1408584
Se 7.25144000862 1.5708699765000003 0.15379011575999998 0.13813598 -0.54250104 0.13001511
Se 5.20645997422 2.2552900326 1.16055007896 -1.02150691 -0.16705642 1.06711047
Se 2.32123005996 8.1693000081 29.023290027599998 1.47446905 0.13497988 -1.55183642
Se 8.1697100496 1.8187700454000002 3.7816401290400004 0.18154042 0.25744411 0.56097762
Se 12.2387199483 7.352570045699999 4.84958010696 -0.62408185 -0.02692657 0.15310729
Se 10.57982999072 2.0134899972 10.311100124880001 0.41724016 -0.91521295 1.16287319
Se 6.089889975999999 5.4343600344 0.00737006928 0.1574966 0.6427406 0.33022329
Se 6.1043400168 4.5082199844 3.30492988608 -0.37832526 -0.05312147 0.85987307
Se 9.50104994772 5.3211800466 3.6272900604 0.03191696 -0.12965972 -0.45803286
Se 7.0537900570600005 7.906960017 8.66059995504 -0.70349954 -0.70988525 0.37575698
Se 7.39069001718 6.905989985400001 1.28412997368 -0.33702973 -0.39373031 -0.59380116
Se 1.7293600604000001 7.9987200282 5.97203992248 0.81982043 0.804239 0.14576905
Se 4.62034999832 0.8071000443 7.847229939360001 -0.16715486 0.04231837 0.27845066
Se 2.54204999558 5.2535399697 5.8268199888 -0.84809325 -0.22587834 -0.09714838
Se 10.59577005052 5.3258199489 9.38289008832 -0.02127149 1.226059 0.72676826
Se 10.31529000562 9.035139950100001 9.92290014624 -0.10269776 0.29766845 0.85718435
Se 0.43604004034 5.3602700283 27.466079922960002 -0.45738264 -0.33118894 0.13519493
Se 3.6626100456 5.9045500503 1.05630995712 0.03022796 -0.16102775 -0.19604585
Se 6.22401004404 7.8909100083 27.65251011408 0.17301386 -0.67470302 -0.4389509
Se 10.50133000576 6.2845300287 0.4997700662400001 0.21127057 -0.48720911 0.32188121
Se 1.04745996936 1.6970000256000002 2.0783798879999997 -0.25311991 -0.61376602 0.21430772
Se 11.78531999208 10.4051100087 6.78709009608 0.79754683 0.17011099 -0.48711511
Se 10.39280997302 3.2757899724000006 8.44747997352 0.29019594 -0.07452735 -0.85574339
Se 7.4055899557 7.4353199976 4.8311501452800005 0.95784759 -0.21368304 0.14135261
Se 0.2355499994 0.4031100117 8.65382994216 0.63100622 -0.13124826 0.57282412
Se 2.58005994018 2.8773400095 3.4644099132000004 0.22499995 0.00490045 0.14962684
Se 5.25955004276 8.9031299544 5.37889000704 -1.31865618 -0.62307617 0.07752274
Se 3.7468099505000003 3.8895199893 28.02320011776 0.88244063 0.93510326 -0.53003348
Se 4.64240994966 9.434429967600002 10.88865994656 0.0611204 -0.48775548 0.04320644
Se 0.41964002362 3.4778700396000004 18.54368987568 0.02240234 0.2800486 0.03288951
Se 0.9046199580600001 7.887380014800001 8.5176300084 0.76430248 -0.89862104 0.29775605
Se 2.2275299951 2.8898000208 29.378090058959998 0.32750134 0.12695122 1.18223723
Se 3.6544700152200003 0.24565999590000004 0.27809007816000003 0.27705567 0.02322183 0.69221328
Se 9.82945994304 10.3547800224 1.25791992912 0.15230517 0.17315076 0.00194529
Se 1.3262999874399999 2.5907099823 7.33381988784 -0.25976217 0.441961 -0.19410853
Se 4.76782994136 5.3763999696 6.60981009168 0.42313827 1.13720933 -0.95955418
Se 6.39900001298 0.20987001090000001 6.24839986296 -0.06827042 1.04672266 -0.85751603
Se 10.40187004298 1.1517400125000001 3.1598700672000004 -0.27921688 0.08033115 0.02943742
Se 11.5957000484 4.1546999835000005 2.89873001112 0.2943053 0.4848108 -0.05621306
Se 0.7786800314600001 8.369169949800002 0.65297000184 -1.09647836 -0.79093345 0.99878909
Se 6.89587998102 2.4172600518 28.01384013576 -0.03895196 0.24513442 -1.68549701
Se 10.755430050140001 8.313339969000001 7.848840065760001 -0.52990261 -1.20004778 -0.84944554
Se 0.6759800003599999 6.1178599944 3.05093005224 -0.10430913 -0.91797963 -0.68745382
Se 0.76039995026 5.5992200418 8.6814199668 0.08743496 0.63457903 0.18998065
Se 4.34383994244 4.4603799966 8.63508005016 -0.32019727 -0.70352083 1.36653096
Se 9.94241998092 0.9093200094 6.66703990968 -0.52804382 0.56319483 -0.61778796
Se 6.479880004659999 10.245540036600001 2.63192997168 0.25408201 0.16486163 1.06966334
Se 10.317359937500001 8.070900037200001 15.253709923439999 0.2369846 0.24240059 -0.24072117
Se 7.673690017419999 3.1099200264 8.44249995432 -0.53598657 -0.29376733 -0.54938406
Se 0.94535996954 9.7047500418 22.2730999584 -0.17816845 -0.37046708 0.28427065
Se 9.0024200561 9.187199960400001 4.73598000312 -0.18073348 0.08453687 0.155853
Se 8.03957996324 10.259250002100002 7.763040081120001 1.394444 -0.39731665 -0.33624864
Se 5.53380998134 3.4494999561000004 5.534230093920001 0.40233497 -0.95855597 -1.29355703
Se 8.58611993836 3.3553199691000004 1.0107601396800001 1.21874037 0.34110208 0.08833274
Se 1.06754001866 1.7886500478 27.79043988624 -1.09769215 -1.01679845 -0.7791983
Se 10.53576000682 7.778289984300001 28.69907012736 -0.61827076 0.73597829 -0.07686162
Se 2.27707004622 9.0792799515 2.5859500888799998 -0.03720529 0.06988138 0.5422662
Se 7.572360049359999 0.6098100525 9.56849007672 -0.48573787 0.89282335 1.14065404
Se 2.7772200087 0.3628000233 6.408590081520001 0.77367855 -0.20849085 -0.49098949
Se 6.9524500298 2.0512299456000003 21.12726996624 0.03559564 -0.40052076 0.22494289
Se 4.71031998608 7.9500199482 7.565710112400001 -0.57388339 1.1380788 -0.10394308
Se 0.7314999944 10.503149956200001 3.6582401016 0.12078419 0.2634798 -0.23347235
Se 1.4762800188999998 3.1048900443000003 11.11858988712 -0.17347089 0.44794365 0.04441295
Se 7.4132199846399995 9.0391700124 29.155300041360004 0.31873251 -0.18202731 0.33617592
Se 10.89525997158 2.6334399465000002 29.76564987768 -0.44955105 -0.24305592 0.71703745
Se 5.23194005356 6.6106400085 23.78388993936 -0.01941941 0.35470478 -0.24733409
Se 8.80816005494 4.9284400374 28.087349887920002 -0.86533755 0.23850073 -0.44096287
135
Lattice="12.574 0.0 0.0 0.0 10.89 0.0 0.0 0.0 29.928" Properties=species:S:1:pos:R:3:forces:R:3 energy=-528.76008177 stress="16443.20618 2299.2984500000002 -708.26148 2299.30146 17588.46445 1174.06403 -708.2633000000001 1174.06325 10502.62106" 
Bi 11.559259967700001 8.8134900084 2.7240600276 0.27351789 0.98993248 -0.21675435
Bi 11.880149956579999 5.5169700498 19.15051000368 0.89511781 -0.3986905 -0.60777164
Bi 9.83513999606 3.4532599464000002 11.40992998872 -0.47233597 0.16263792 0.03489788
Bi 4.75555998068 0.032150002500000004 7.317310106640001 0.58264683 0.05278718 -0.32064889
Bi 4.39933994382 3.1753499778000003 7.33313992368 0.30124544 -0.18362568 0.15895232
Bi 9.69978993934 5.8758399809999995 7.691519942399999 -0.23421532 0.47700773 0.01999012
Bi 10.0374199459 5.8486300092 15.6656200608 -0.20456449 -0.41363655 -0.74677997
Bi 6.871230037159999 10.301519972700001 17.87591000304 0.52913294 0.31555783 0.42027478
Bi 8.985230014959999 5.017770054 2.3136801088800003 0.16790864 0.24984138 0.18305965
Bi 7.5034100174 2.1527700480000003 13.258259924879999 -0.42374537 -0.22998182 -0.09443493
Bi 3.3224900098199996 7.9671899934 18.35157007248 -0.3475027 0.45914837 -0.86879243
Bi 0.9495899888799999 8.9121299949 16.04221994664 -0.03437924 0.25226539 0.80008535
Bi 1.18039003404 5.5626500061 9.26769990984 -0.32754006 0.61230222 -0.05435633
Bi 6.42787997618 2.718450009 23.58341004864 -0.03589739 -0.04673093 0.78758223
Bi 11.7283299717 1.72062 14.65586999112 -0.45789609 -1.49384051 -0.42161628
Bi 8.08906003638 8.3531999826 6.229470103680001 0.08041842 0.23930364 0.54087606
Bi 5.97610998758 5.9670799947 29.739819918720002 -1.10553912 -0.03418926 -0.08100715
Bi 10.57300997886 1.5957500328 22.537400112 -0.3293182 -0.10990329 0.25248791
Bi 8.092509964760001 8.3616900444 11.085450014160001 0.18965551 -0.27785522 -0.25664241
Bi 7.017349976359999 4.9612399551 6.12222012288 -0.31302329 -0.03645013 0.64355901
Bi 4.501299995019999 4.6443999789 2.72307000936 -0.60590544 0.86990141 -1.15370969
Bi 3.27878001954 8.1715299534 10.2395898624 -0.2441007 -0.27195101 0.26761582
Bi 7.37360999854 1.8872099928000001 7.6024799524799995 0.41103668 0.25068904 -0.38988847
Bi 0.57903005946 5.761970002800001 4.63545005544 0.09841189 0.29367984 0.3468258
Bi 3.00995003712 7.8937500114 5.90229002496 0.25932832 0.12457703 -0.10608725
Bi 7.471879957960001 6.1090499844 18.89671008888 -0.63771694 0.11155942 0.0833633
Bi 6.41461000528 0.9310000392000001 2.69971988448 -0.01386215 -0.45221877 -0.07247006
Bi 11.61923002608 9.7625199672 7.925690082000001 -0.15564229 0.84258782 0.17028406
Bi 8.961800000579998 8.609869986300001 14.20199002368 0.12897179 0.25459567 0.07787932
Bi 3.44704993992 1.2791599821000001 15.13392011064 1.3654675 0.72260273 0.35037357
Bi 1.0898400076599999 1.5317400285 11.01607990296 0.23799375 -0.39982363 0.08778004
Bi 0.49984001338 7.341879986100001 11.83104986952 -0.00749164 0.40698874 -0.29969651
Bi 5.76967005558 3.9148699491000003 15.35260999224 0.2642698 -0.33871287 -0.63568892
Bi 1.1003499855599999 8.8574299605 22.083160110719998 -0.10037943 0.20562139 0.19697423
Bi 3.2387700545 5.2700599908 11.91393995472 0.13004305 -0.04178251 -1.03766656
Bi 6.47224004226 6.873640042500001 8.634149887920001 0.084811 -0.14447223 0.22783274
Bi 1.5181000112399998 3.9915000476999998 22.56686991432 -0.02236495 0.34773738 0.47950269
Bi 11.99110004056 2.1745300104000003 7.488690105120001 -1.02622754 -1.07132176 -1.02464668
Bi 7.26090999098 10.0569599757 21.2319901332 0.20478974 0.10267153 -0.70950396
Bi 4.8034000269999995 8.8468700364 14.08651014216 0.80442361 -0.43198445 0.09913914
Bi 9.807940045 0.12462995160000001 12.02788991688 -0.151137 0.05198886 0.04479756
Bi 7.55868004032 8.9149599792 1.6412200956 -0.25613815 0.24227301 -0.55120017
Bi 1.7928200324799999 5.1256200402 15.899299979759999 0.19893651 -0.25924801 -0.03622158
Bi 8.85593999754 2.0567100114000003 18.2038601292 0.08320885 -0.41475179 0.35401082
Bi 1.73685001498 1.5704900244000002 3.8210199900000004 -0.37152864 -0.23639794 -0.58491049
Bi 3.05799001004 8.4912399891 2.67137986416 -0.51325787 0.87547059 -0.45584357
Bi 5.5196999415 1.6313800437 10.2765299928 0.30133489 0.16442389 -0.00486591
Bi 4.1784099857 2.9892999906 19.07950013736 -1.19105532 -0.52194159 -0.70464656
Bi 10.16906004392 9.8356000347 18.850770010319998 -0.29056162 0.63939767 -0.05382117
Bi 9.71839002884 6.014360018700001 22.8188699592 -0.48541218 -0.33733594 0.77311468
Bi 10.62433993888 1.3581900189 4.557909899519999 -0.23276335 0.55053768 -0.35798876
Bi 4.88989003452 6.3352000008000005 21.76480011288 -0.27953168 -0.04986798 0.87941471
Bi 7.7939599502 5.633260003800001 13.23540002064 -0.43417536 -0.16032896 -0.03952021
Bi 0.8919700111000001 1.5032799936 19.33958014368 0.75730543 0.59491364 0.0551447
Se 11.09034998248 2.9493000405000003 19.727119910640003 -0.04330188 -0.17763532 0.36939744
Se 5.3070000435999996 7.2448200297000005 3.5832698630400004 0.56275436 -0.34594691 0.32393341
Se 0.46677001616 9.7187100417 19.18929010752 0.31961224 -1.07369867 0.10701223
Se 12.32915001872 3.374149977 12.56598996984 0.72028527 1.47934429 -0.30850997
Se 3.87775005394 8.6863400019 20.83115994 -0.19304519 1.2426963 0.76387547
Se 4.01368002354 5.8860700470000005 14.42371999152 0.36684517 0.8696416 0.16862614
Se 9.87074000782 6.955900053300001 18.13471986504 0.02969666 1.51095612 -0.07194658
Se 4.80291001822 3.7989099621 28.3088099052 -0.56290428 0.25696786 0.02752292
Se 1.5140799776999998 10.8549700281 1.458009858 -0.21833946 -0.46359612 -0.29047396
Se 8.60591996468 1.6853600313000001 28.09108011384 -0.41878966 -0.37148521 0.69772716
Se 12.161689989680001 10.057599981000001 10.74549008088 -0.28756989 -0.7191723 -0.03050524
Se 9.71631003776 3.1711000464000003 8.60291014368 -0.06565731 -0.40880569 0.24071361
Se 2.4505500034999996 9.771449985 7.9870900675200005 -1.19000418 0.02662064 0.32336397
Se 11.0203100362 10.0969899822 15.876939873120001 -0.33219844 -0.25924592 0.58166506
Se 0.46645994132 6.6555099666 26.76846003864 0.36969701 -0.23386183 0.24273424
Se 2.7824300456 3.8815400151000006 4.79646000192 0.30473335 0.60029267 0.8738395
Se 4.5381400546599995 1.1498699817 29.46742992744 -0.4969679 0.37490006 1.14630244
Se 10.67754002992 4.3720100424 4.79592997704 -0.49473535 0.04975889 -0.22227658
Se 0.63646997756 5.0311300149000004 29.84440002264 0.17176087 -0.57704056 -0.55162911
Se 3.87675997718 8.185719950100001 29.84694988824 0.57286787 -0.38075455 0.37026623
Se 3.06908002656 10.2531900438 24.028659978 0.64522957 -0.39233135 -0.10244894
Se 12.247749966399999 6.223859987400001 21.6836799696 0.46612087 0.46794274 0.53504183
Se 9.57252999422 3.008320029 15.646150101120002 -0.74927053 -0.20947459 -0.04587889
Se 8.9591799562 7.340390016300001 25.57627007808 -0.4485823 0.98320165 -0.43181552
Se 10.1770799926 9.777270036600001 21.75177006024 -0.14918622 -0.01948699 0.16943681
Se 11.06311997956 3.9124999584000006 0.7771200249600001 0.33104741 0.22132798 -0.14858616