Generated by pymatgen.io.lammps.data.LammpsData

360  atoms

  2  atom types

0.000000 16.677463  xlo xhi
0.000000 21.699897  ylo yhi
0.000000 28.493178  zlo zhi

Masses

1  208.9804
2   78.9600

Atoms

1    1  0.7557  3.014060 13.215300 19.963300
2    1  0.7567  4.403140 16.390100 20.210400
3    1  0.8166  1.283110  5.466980 19.481800
4    1  0.8218  3.647560  9.496270 19.779900
5    1  0.7684  6.497640 13.029500 20.256500
6    1  0.7351  8.258630 16.519800 19.637900
7    1  0.8228  1.957540 19.843500 20.052000
8    1  0.8944  3.960370  2.394230 20.528300
9    1  0.8174  5.828080  5.825470 20.059300
10   1  0.7628  7.755110  9.465020 19.519600
11   1  0.8255 10.331100 12.772800 20.313100
12   1  0.8047 12.500400 16.301100 19.160400
13   1  0.8349  6.730620 20.426100 19.853200
14   1  0.7294  8.730350  2.434680 19.710100
15   1  0.7417 10.095200  5.615760 19.230500
16   1  0.8143 12.381100  9.540100 19.954500
17   1  0.8125 15.048900 12.547300 19.882400
18   1  0.8190  0.405310 16.443400 19.833200
19   1  0.7574 10.483600 20.349500 20.237800
20   1  0.7667 11.865600  2.317520 20.177000
21   1  0.8882 14.001300  5.883890 19.860500
22   1  0.6985 16.424600  9.278360 19.501600
23   1  0.8198 14.489300 20.337300 19.797400
24   1  0.6938 16.155400  1.962760 19.295900
25   1  0.8343  1.995720 12.564700 25.924300
26   1  0.8899  3.940430 16.739400 25.827400
27   1  0.7823  1.541220  5.686250 25.709900
28   1  0.8116  4.063670  9.366990 25.963900
29   1  0.7878  6.317240 13.098600 25.833600
30   1  0.7503  8.194840 16.492400 26.699300
31   1  0.8624  2.043540 20.352100 26.092000
32   1  0.7136  3.924960  2.021840 26.433500
33   1  0.7110  5.982750  5.328580 25.783200
34   1  0.8014  8.235360  9.517980 25.458600
35   1  0.8122 10.144600 13.190400 26.277300
36   1  0.7486 12.451900 16.627100 26.701600
37   1  0.8696  6.283630 20.210400 26.380100
38   1  0.7578  8.021370  2.561370 26.276700
39   1  0.8102 10.219700  5.808590 25.840500
40   1  0.7529 12.213500  8.920300 25.919300
41   1  0.8216 14.601500 13.078300 26.183500
42   1  0.7962 16.646500 16.424700 26.304300
43   1  0.6995 10.536400 20.653100 26.270000
44   1  0.7809 12.838900  2.513260 26.011200
45   1  0.7797 14.470200  5.907890 26.123400
46   1  0.8135 16.390400  9.257380 25.158300
47   1  0.7444 13.934900 19.929000 25.678800
48   1  0.7395 16.549900  2.115190 25.645500
49   1  0.8006  2.202350 15.310800  0.442549
50   1  0.8379  3.965510 18.501100  0.966566
51   1  0.7357  2.309720  8.032410  1.804320
52   1  0.7671  3.881930 11.255800  0.816925
53   1  0.7429  6.182930 15.173800  0.802525
54   1  0.7495  8.294280 19.136600  0.812990
55   1  0.8659  1.792310  0.733226  1.097460
56   1  0.8220  4.142850  4.518070  0.950275
57   1  0.7678  6.338580  8.111590  0.638600
58   1  0.8231  8.069450 11.826500  1.139910
59   1  0.8473 10.353100 15.541300  1.402050
60   1  0.8321 12.207400 19.023800  1.022450
61   1  0.8881  6.024880  1.096230  1.237210
62   1  0.7911  8.238880  4.577670  0.679693
63   1  0.7077 10.408400  8.407290  1.086310
64   1  0.8599 12.261800 11.627000  1.067680
65   1  0.8645 14.727900 14.847000  1.093140
66   1  0.8286 16.671200 18.761800  1.716170
67   1  0.8492 10.169700  0.961358  0.970875
68   1  0.8228 11.958000  4.446560  1.250630
69   1  0.6769 14.264900  7.463090  1.322010
70   1  0.7558 16.033300 10.543000  0.801434
71   1  0.8578 14.973000  0.878077  1.039390
72   1  0.7147  0.462286  4.710720  1.152470
73   1  0.7436  1.433730 15.281300  6.899530
74   1  0.7537  4.345020 18.589800  7.223390
75   1  0.8300  2.311710  7.817600  7.132530
76   1  0.8112  4.055030 12.212900  7.230430
77   1  0.7559  6.176800 15.245000  7.006830
78   1  0.7492  8.264570 18.860900  5.304930
79   1  0.7210  1.505050  0.793026  6.954450
80   1  0.6569  3.383920  4.369430  7.687800
81   1  0.7738  6.169650  8.093030  7.356440
82   1  0.7326  7.852990 11.940700  7.281330
83   1  0.7722  9.776970 15.642900  6.466050
84   1  0.8085 12.428900 19.027800  6.899020
85   1  0.7755  5.440620  1.048190  6.213670
86   1  0.7698  8.032690  4.485840  7.279920
87   1  0.8219 10.273200  8.884080  7.499170
88   1  0.7863 11.814000 12.062600  7.201880
89   1  0.7455 14.470900 15.039600  7.334080
90   1  0.7856 16.195200 19.415100  7.203220
91   1  0.7495  9.596600  0.794982  6.811940
92   1  0.7833 12.407400  5.096220  7.077250
93   1  0.7612 14.374500  8.136310  7.367050
94   1  0.7498  0.355785 11.802200  7.125100
95   1  0.7618 13.482400  1.315030  6.656980
96   1  0.7280 16.336500  4.237680  6.706950
97   1  0.6870 15.988900 13.935800 10.627900
98   1  0.8764  1.270640 17.627300 10.962700
99   1  0.8410 15.896200  6.937490 10.977700
100  1  0.7839  1.641790 10.396900 10.678000
101  1  0.8478  3.817570 14.521600 10.284400
102  1  0.7722  6.098130 17.587500 10.318400
103  1  0.7789 15.967900 21.389300 10.368900
104  1  0.7181  1.425750  2.884100 10.226800
105  1  0.7309  4.214840  6.982000 10.684000
106  1  0.8245  5.970710 11.225100 10.587000
107  1  0.7457  8.294020 14.243500 10.664500
108  1  0.8196  9.710010 17.332900 11.266000
109  1  0.8180  3.680190 20.715800 10.511400
110  1  0.7410  5.171770  2.975260 10.644700
111  1  0.7793  8.103470  6.617280 11.265100
112  1  0.9112  9.981200 10.405200 11.290700
113  1  0.8024 11.967200 14.044200 10.791100
114  1  0.7781 13.942500 18.084300 10.092300
115  1  0.8717  8.002610 21.350900 10.320800
116  1  0.7682  9.825550  3.591180 10.653200
117  1  0.7891 12.278000  6.909580 10.176700
118  1  0.7608 14.192000 10.643000 10.460600
119  1  0.7798 12.059000 21.477100 10.375000
120  1  0.8736 14.198600  3.366730 10.334100
121  1  0.8022  0.075892 13.812400 16.469400
122  1  0.7362  2.417850 18.004500 17.107500
123  1  0.8258 16.496600  7.291900 16.645800
124  1  0.8581  2.037390 10.391800 16.616900
125  1  0.8620  4.045470 14.457700 16.564800
126  1  0.7081  5.983900 17.751200 17.354300
127  1  0.7931 16.617300 21.007300 16.392700
128  1  0.8084  1.305980  3.142910 16.214600
129  1  0.7767  4.114080  6.417360 16.582700
130  1  0.8265  6.440030 10.442200 16.579900
131  1  0.8404  8.109150 13.954100 16.397800
132  1  0.8033 10.554000 17.919200 16.760000
133  1  0.8366  4.611950 21.604500 16.592700
134  1  0.7926  5.944440  3.237020 16.944100
135  1  0.7592  8.228370  7.088140 16.102500
136  1  0.7846 10.533000 11.262800 16.984800
137  1  0.7533 12.336200 14.210500 16.342600
138  1  0.8581 14.611500 17.944400 16.444300
139  1  0.8775  8.234500 21.467400 16.303700
140  1  0.7949 10.145100  3.551920 16.422900
141  1  0.8649 12.259400  6.760430 15.175700
142  1  0.6959 14.315900 11.291900 16.848600
143  1  0.8544 12.109700 21.304500 16.562400
144  1  0.8270 14.490200  3.104840 15.943600
145  2 -0.8527 16.552600 14.104000 27.885000
146  2 -0.8986  2.213130 17.493000 27.656600
147  2 -0.8437 16.580300  7.074150 27.567000
148  2 -0.8190  1.719840 10.264500 27.329300
149  2 -0.8283  4.294420 13.821000 27.306100
150  2 -0.8667  5.713970 17.902100 27.370100
151  2 -0.7652  0.211937 21.045500 27.786600
152  2 -0.8846  2.099230  3.252050 28.044500
153  2 -0.8061  3.928490  6.921500 27.713400
154  2 -0.8402  6.140300 10.849400 27.908000
155  2 -0.9427  8.537140 14.409200 28.142300
156  2 -0.9514 10.266200 17.906800 27.824800
157  2 -0.7891  3.849150 20.973800 27.926600
158  2 -0.9590  5.770060  2.990650 28.388600
159  2 -0.8938  8.110180  6.825410 27.643000
160  2 -0.8159 10.165700 10.668000 27.515600
161  2 -0.8225 12.472900 13.871500 27.909300
162  2 -0.7893 14.474900 18.037900 27.820100
163  2 -0.8513  8.119690 21.675700 27.475500
164  2 -0.8500 10.216100  3.355450 27.899700
165  2 -0.9068 12.125700  6.361050 27.831700
166  2 -0.8364 13.975200 10.543400 27.613800
167  2 -0.7637 12.844500 21.658400 27.987100
168  2 -0.8138 14.430100  3.348500 27.769200
169  2 -0.3938  2.040170 14.923300 24.613500
170  2 -0.3376  4.376590 19.159200 24.643400
171  2 -0.3261  1.732140  7.687620 24.075700
172  2 -0.3993  4.099560 11.722400 24.429700
173  2 -0.3359  6.581810 16.070800 24.470900
174  2 -0.1697  7.990300 19.332700 24.011300
175  2 -0.4680  2.123760  1.596790 24.496200
176  2 -0.3386  3.893580  4.871080 24.051900
177  2 -0.4438  6.038760  8.068230 24.656200
178  2 -0.4971  8.495000 12.013700 24.478000
179  2 -0.2110 10.436800 15.440100 24.220400
180  2 -0.3184 12.306500 18.264600 24.192400
181  2 -0.3301  6.377150  0.901516 24.570800
182  2 -0.3677  8.406690  4.635540 24.174600
183  2 -0.2912 10.406800  7.767560 23.915200
184  2 -0.2636 12.415100 11.314900 24.149800
185  2 -0.4366 14.499500 15.477500 24.966100
186  2 -0.3378  0.443937 19.111600 24.454300
187  2 -0.4478 10.486100  1.217470 24.848700
188  2 -0.3062 12.640100  4.962270 24.242000
189  2 -0.3969 14.029700  7.628070 24.260400
190  2 -0.3795 16.412600 12.006200 24.198300
191  2 -0.3808 14.790700  0.546183 24.132800
192  2 -0.3342 16.015900  4.796010 24.099800
193  2 -0.3109  0.131196 14.213700 21.480500
194  2 -0.4257  2.382470 17.284900 21.684600
195  2 -0.3936 16.152200  6.888710 21.172100
196  2 -0.3252  1.652690 10.338700 21.729100
197  2 -0.4170  4.463070 14.107900 21.974100
198  2 -0.4445  5.927750 18.379400 21.270700
199  2 -0.4671  0.201503 21.167000 21.084700
200  2 -0.3959  1.712310  3.532530 21.333100
201  2 -0.4276  3.761900  6.783140 21.000300
202  2 -0.3909  5.688770 10.548500 21.625400
203  2 -0.3319  8.177350 14.508700 21.891700
204  2 -0.3563 10.219200 17.119500 21.106600
205  2 -0.2822  4.045050 21.538100 21.503100
206  2 -0.3241  6.121840  3.043540 21.823300
207  2 -0.3358  7.998380  6.879630 21.322400
208  2 -0.3740 10.074300 10.348800 21.590200
209  2 -0.2815 12.420400 13.852600 21.308700
210  2 -0.2268 14.323000 17.617300 21.387900
211  2 -0.3636  8.519350 21.694800 21.685800
212  2 -0.4488 10.509300  4.100340 21.351800
213  2 -0.2910 12.127600  6.951610 21.345900
214  2 -0.4018 14.568200  9.976200 21.648700
215  2 -0.3713 12.655100 21.265900 21.925900
216  2 -0.3629 14.428600  3.322890 21.276300
217  2 -0.9132  2.218360 13.151300  8.843670
218  2 -0.7828  3.150350 16.854400  9.129690
219  2 -0.7401  1.293150  5.797910  8.745060
220  2 -0.7823  4.048380  9.674310  9.059100
221  2 -0.9850  6.097490 13.151600  8.995280
222  2 -0.8699  7.903720 16.499800  8.490790
223  2 -0.7561  1.579900 19.757300  8.796470
224  2 -0.9001  3.116590  1.379970  8.988630
225  2 -0.8513  5.885730  5.617540  8.967820
226  2 -0.7978  8.426410  9.171230  9.221850
227  2 -0.8673 10.282600 13.140100  8.955780
228  2 -0.7375 11.626900 16.509700  9.463960
229  2 -0.7705  6.124820 20.178200  8.750010
230  2 -0.7534  7.677860  1.974610  8.967620
231  2 -0.8097 10.239200  6.052580  8.521190
232  2 -0.8487 11.957100  9.511780  9.478030
233  2 -0.9064 14.532200 12.615600  8.481720
234  2 -0.8384 16.204700 16.810000  8.910160
235  2 -0.7592 10.129600 20.261800  8.728510
236  2 -0.7835 11.801800  2.529980  8.880070
237  2 -0.8936 14.383600  5.799920  9.009280
238  2 -0.7527  0.277107  8.750790  8.933640
239  2 -0.9394 14.117200 20.226100  8.601590
240  2 -0.8924 15.416800  2.017010  8.773220
241  2 -0.2659 15.639800 13.635400  5.220840
242  2 -0.3267  1.576420 17.611100  5.320410
243  2 -0.3332 16.311400  6.851110  5.486770
244  2 -0.3721  2.085600 10.613100  5.549590
245  2 -0.3331  3.597600 14.117300  5.312910
246  2 -0.4851  5.817000 17.070300  5.330890
247  2 -0.3153 16.065000 21.557700  4.904250
248  2 -0.4567  2.446720  2.933710  5.577890
249  2 -0.4183  4.223530  6.843610  5.861570
250  2 -0.4034  5.984730 10.816200  5.788980
251  2 -0.3775  7.743700 14.007500  4.907520
252  2 -0.4491 10.972000 17.523100  5.128370
253  2 -0.3327  3.534610 21.242100  5.071820
254  2 -0.2685  5.762520  3.800440  5.247580
255  2 -0.1853  8.381450  7.112140  5.307990
256  2 -0.3988  9.661750 10.495800  5.544000
257  2 -0.4163 12.445200 14.197200  5.791610
258  2 -0.3306 14.385400 17.576700  5.354690
259  2 -0.4450  7.758220  0.231303  4.905320
260  2 -0.3697  9.988950  3.043680  5.505370
261  2 -0.3854 12.201500  7.280310  5.533950
262  2 -0.2857 14.728900 10.211000  5.661100
263  2 -0.3853 12.429900 20.760600  5.156150
264  2 -0.3787 13.802400  3.325170  5.017580
265  2 -0.3325  1.591270 12.290200  2.139690
266  2 -0.3925  4.274820 16.091500  2.501740
267  2 -0.3235  2.446170  5.852720  3.501250
268  2 -0.3654  4.407190  9.003140  2.911990
269  2 -0.2380  5.159670 12.619700  2.849330
270  2 -0.5412  8.412850 16.767700  2.470430
271  2 -0.4230  2.225290 20.512700  2.523180
272  2 -0.2701  3.715880  2.043980  3.034150
273  2 -0.3549  6.356890  5.788250  2.423510
274  2 -0.3848  8.306540  9.659070  2.510060
275  2 -0.3968 10.500400 12.731900  2.656420
276  2 -0.4793 12.846500 16.424400  2.143040
277  2 -0.4539  6.250980 20.207400  2.491730
278  2 -0.4326  8.158910  2.089670  2.349620
279  2 -0.2897 10.267700  5.313420  3.086520
280  2 -0.3590 12.269400  9.608060  2.916690
281  2 -0.3121 14.486600 12.277600  2.553180
282  2 -0.4146  0.338112 15.884600  2.413320
283  2 -0.5349 10.227300 20.384000  2.271580
284  2 -0.2748 12.200700  1.627850  2.746590
285  2 -0.3045 14.043200  5.574390  3.393260
286  2 -0.4022 16.185800  8.551370  2.904910
287  2 -0.3571 14.745900 20.160300  2.635450
288  2 -0.5007 16.607300  2.229890  2.432240
289  2 -0.9663  2.523470 15.422600 18.374600
290  2 -0.8747  4.097720 19.570800 18.233600
291  2 -0.8948  1.930690  7.926880 18.132700
292  2 -0.8305  4.172660 11.345000 18.094600
293  2 -0.9407  5.989400 14.901300 18.379300
294  2 -0.8736  8.530800 19.440400 18.118600
295  2 -0.7010  2.209580  0.866218 17.757100
296  2 -0.8008  3.490170  3.874300 18.075200
297  2 -0.8313  5.956450  7.994640 18.061900
298  2 -0.9211  8.385800 11.906100 18.401700
299  2 -0.8538 10.140300 15.129800 18.242400
300  2 -0.8773 12.708200 18.901200 18.348000
301  2 -0.8078  6.194150  1.189190 18.681400
302  2 -0.9301  7.822320  4.779480 18.208500
303  2 -0.7123 10.417500  8.714470 18.140600
304  2 -0.9568 12.874600 12.135000 18.716700
305  2 -0.7664 14.868500 15.358600 18.418200
306  2 -0.9049 16.547900 18.998300 18.248300
307  2 -0.8805 10.131700  0.920137 18.106900
308  2 -0.7523 12.406500  4.522340 17.648200
309  2 -0.7313 13.930100  7.742710 18.128000
310  2 -0.9265  0.335037 11.720700 18.183000
311  2 -0.8301 13.596800  0.857235 18.349600
312  2 -0.8267 16.010400  4.657750 17.820000
313  2 -0.3917  2.246130 12.809000 15.190300
314  2 -0.3510  4.357950 16.773400 15.078600
315  2 -0.3503  1.461730  5.729030 14.987300
316  2 -0.3055  4.137940  9.394780 15.005200
317  2 -0.3014  6.144970 12.468200 14.818500
318  2 -0.4174  8.253530 16.402600 15.507500
319  2 -0.3064  2.302520 20.453900 14.909600
320  2 -0.2886  4.327220  3.021840 14.724800
321  2 -0.3110  5.769420  5.986180 14.323400
322  2 -0.4394  8.805280  9.652790 15.358000
323  2 -0.3809 10.112900 12.804400 14.774900
324  2 -0.4081 12.477000 16.885700 15.025000
325  2 -0.3989  6.525450 19.815500 15.348800
326  2 -0.4222  7.850720  2.270730 15.113900
327  2 -0.5268  9.678050  5.308590 14.654900
328  2 -0.3051 11.992700  9.631380 14.984700
329  2 -0.4664 14.351100 13.798500 15.068100
330  2 -0.3732 16.553200 16.950700 15.190200
331  2 -0.4194 10.293200 19.954200 15.035000
332  2 -0.3861 11.863200  2.094210 14.934300
333  2 -0.3863 14.774300  5.831210 14.968200
334  2 -0.4269 16.065600  9.589440 15.188600
335  2 -0.3924 14.377000 20.294300 14.964700
336  2 -0.4722 16.459100  1.411410 14.910300
337  2 -0.3474  1.461270 14.878800 12.233600
338  2 -0.3088  4.027980 19.138700 12.385300
339  2 -0.2886  2.264830  7.847780 12.507200
340  2 -0.3036  3.486850 11.920200 12.105200
341  2 -0.4403  5.604150 15.563900 11.937100
342  2 -0.3923  7.654800 18.915300 12.084600
343  2 -0.3251  1.164660  0.791941 12.191400
344  2 -0.3584  3.008050  4.627630 12.056100
345  2 -0.3249  6.414920  8.905640 12.500000
346  2 -0.4034  7.953140 12.048600 12.375800
347  2 -0.3874 10.176600 15.165800 12.802700
348  2 -0.3474 12.632400 19.041800 12.141200
349  2 -0.3341  6.066400  0.495383 12.028200
350  2 -0.4043  7.354720  4.312340 12.188400
351  2 -0.4675 10.190000  7.971370 12.246000
352  2 -0.4282 12.398900 11.567100 12.078200
353  2 -0.3310 13.941900 15.433100 12.311100
354  2 -0.3407 16.641400 19.198900 12.389900
355  2 -0.3469  9.712260  1.406640 12.050600
356  2 -0.4486 13.056500  4.786050 12.087900
357  2 -0.4162 13.939400  8.120190 12.213900
358  2 -0.3672 16.267400 11.367800 12.513000
359  2 -0.3531 13.995700  0.944731 12.126700
360  2 -0.2785 16.304600  4.086420 12.415200

