Generated by pymatgen.io.lammps.data.LammpsData

360  atoms

  2  atom types

0.000000 16.871067  xlo xhi
0.000000 22.058404  ylo yhi
0.000000 29.928687  zlo zhi

Masses

1  208.9804
2   78.9600

Atoms

1    1  0.7479  2.245080 12.928200 21.290400
2    1  0.7884  4.665340 16.766600 22.012200
3    1  0.7813  2.302490  5.917380 21.581600
4    1  0.8206  4.501200  9.366360 21.223300
5    1  0.8333  6.549670 12.875800 21.022700
6    1  0.7276  8.574460 16.856900 21.609600
7    1  0.7683  2.228190 20.605400 22.447400
8    1  0.8251  3.959420  2.383970 21.927800
9    1  0.8420  6.502220  6.218610 22.132300
10   1  0.8269  8.937500  9.379290 21.380600
11   1  0.7683 10.900500 13.105700 21.738700
12   1  0.8372 12.820000 16.685300 22.005300
13   1  0.7810  6.243320 20.769200 21.965800
14   1  0.8174  8.786460  2.248420 21.230800
15   1  0.7804 10.875600  5.840240 21.429700
16   1  0.7382 12.978200  9.706130 21.298500
17   1  0.7810 15.211600 12.949300 21.686200
18   1  0.8007  0.215515 16.837900 21.816200
19   1  0.7651 10.673900 20.559800 22.240100
20   1  0.8422 12.696200  2.077470 21.672900
21   1  0.7581 15.027800  5.991840 21.300700
22   1  0.7732 16.881800  9.460340 21.188500
23   1  0.8430 14.841100 20.474100 22.196500
24   1  0.8428 -0.029160  1.969150 22.059000
25   1  0.7796  2.264910 13.193700 28.227200
26   1  0.7386  4.394530 17.202600 28.582500
27   1  0.7144  2.246380  5.721100 27.995500
28   1  0.8002  3.972880  9.656280 27.990300
29   1  0.8231  6.201680 13.441800 28.323000
30   1  0.8429  8.573150 16.661800 27.986000
31   1  0.8106  2.202840 20.645400 27.948000
32   1  0.7982  4.205520  2.542740 27.905100
33   1  0.7970  6.339360  6.216790 27.992100
34   1  0.8267  8.397750  9.527240 27.557500
35   1  0.8016 10.506600 13.339100 27.445500
36   1  0.7863 12.302200 17.156200 28.387500
37   1  0.7995  6.467740 20.515800 28.167700
38   1  0.8407  8.314840  2.402900 28.273000
39   1  0.7391 10.425600  5.574240 27.854500
40   1  0.8315 12.872700  9.209130 27.859000
41   1  0.7749 14.813300 13.401000 27.674900
42   1  0.7602 -0.243654 16.897400 27.861000
43   1  0.8045 10.654200 20.680500 27.560400
44   1  0.8231 12.422700  2.370420 28.160200
45   1  0.7826 14.442700  5.943560 28.310200
46   1  0.7788  0.029149  9.573900 27.886600
47   1  0.7757 14.613500 20.513800 28.318700
48   1  0.8115  0.053637  2.135400 28.251900
49   1  0.7483  2.175420 15.881200  1.468080
50   1  0.6865  4.293310 19.642700  1.376760
51   1  0.7502  2.117860  8.030830  1.449600
52   1  0.7575  4.225300 12.548100  1.903800
53   1  0.7490  6.818030 15.861600  1.794180
54   1  0.7846  8.359140 19.770700  1.729750
55   1  0.7445  2.178990  0.598416  1.365660
56   1  0.7551  4.176910  4.888980  1.204140
57   1  0.7762  6.289090  8.515290  1.261970
58   1  0.7298  8.653080 12.061400  1.221170
59   1  0.6819 10.502900 15.549000  1.743230
60   1  0.7585 12.458400 19.338900  1.726610
61   1  0.7618  6.168920  1.243980  1.677420
62   1  0.7322  8.357980  4.948010  1.506780
63   1  0.7252 10.470900  8.690470  1.471970
64   1  0.7279 12.844500 12.231800  1.644670
65   1  0.7448 15.197100 15.436400  1.555890
66   1  0.8067  0.012898 19.339900  1.989870
67   1  0.8189 10.362600  0.880470  1.754960
68   1  0.7530 12.385100  4.814270  1.896110
69   1  0.7784 14.489100  8.173600  1.585120
70   1  0.7179 -0.070012 11.849900  1.540150
71   1  0.6814 14.544100  0.669081  1.231500
72   1  0.8178  0.221500  4.465130  1.945190
73   1  0.7870  2.113060 15.138900  8.181110
74   1  0.7947  4.391260 19.113000  8.025830
75   1  0.7543  1.885010  8.035920  7.894380
76   1  0.7571  4.144500 11.795700  7.806920
77   1  0.8250  6.495950 15.698000  8.218590
78   1  0.7951  8.672570 19.102700  8.096710
79   1  0.7796  2.451040  0.874703  8.385770
80   1  0.8177  4.197110  4.277070  7.769370
81   1  0.8426  6.548900  8.236560  7.888210
82   1  0.7536  8.116850 11.861200  8.058120
83   1  0.7917 10.369900 15.464100  8.219930
84   1  0.7719 12.636000 18.979200  8.455860
85   1  0.7945  6.377750  0.861135  7.916480
86   1  0.7314  8.257710  4.645980  8.334540
87   1  0.7667 10.706500  8.203590  7.942550
88   1  0.7708 12.590100 11.492200  8.426150
89   1  0.7331 14.591500 15.174900  8.129310
90   1  0.7095 16.977300 19.316000  8.733860
91   1  0.7599 10.341100  0.750076  8.157410
92   1  0.7344 12.451000  4.715500  7.890950
93   1  0.7889 14.677700  7.862620  7.902460
94   1  0.6707  0.315813 11.990100  8.076980
95   1  0.7650 15.033000  0.310963  8.070210
96   1  0.7212 -0.076676  4.663780  7.888070
97   1  0.8126 16.927800 14.209900 11.446300
98   1  0.7567  2.350200 17.837800 11.213800
99   1  0.7480 -0.189204  6.731540 11.399100
100  1  0.7974  2.083980 10.553900 11.373500
101  1  0.7951  4.438130 14.367000 11.541200
102  1  0.7371  6.494990 17.930100 11.273500
103  1  0.7523  0.174200 21.639500 11.756700
104  1  0.7607  2.291310  3.233840 11.550000
105  1  0.8409  4.408590  7.196680 11.539900
106  1  0.7984  6.448820 11.043000 11.385700
107  1  0.7852  8.479240 14.332400 11.712900
108  1  0.8634 11.140800 18.097700 11.887600
109  1  0.7390  4.907150 21.455800 11.446500
110  1  0.7119  6.625530  2.986650 11.272100
111  1  0.7662  8.306380  6.986680 11.267100
112  1  0.7709 10.480700 10.554200 11.564600
113  1  0.7327 12.914600 14.346400 11.598100
114  1  0.7475 14.804800 18.024500 11.512000
115  1  0.7535  8.846930 21.383600 11.746000
116  1  0.6977 10.622100  2.809280 11.429600
117  1  0.8131 12.291200  6.776420 11.718100
118  1  0.7917 14.982300 10.738400 11.721200
119  1  0.7966 12.775300 21.372300 11.877000
120  1  0.7618 14.546300  3.379660 11.907800
121  1  0.7132 17.020800 14.299700 18.079400
122  1  0.7886  2.497620 18.051800 18.465500
123  1  0.7207  0.280390  6.618800 17.924100
124  1  0.6958  2.282860 10.518100 17.969100
125  1  0.7373  4.054580 14.359000 17.860000
126  1  0.7420  6.487210 17.986900 17.950300
127  1  0.7837  0.046575 21.645600 18.792600
128  1  0.6996  2.037640  2.948630 18.433000
129  1  0.6959  4.090050  6.594680 17.731200
130  1  0.7185  6.216010 10.439000 17.539900
131  1  0.7275  8.467240 14.239600 17.504800
132  1  0.7662 10.818300 18.114400 18.211100
133  1  0.7651  4.296000 21.691400 18.493100
134  1  0.7568  6.300230  3.177860 17.928500
135  1  0.7898  8.735790  6.712340 17.954400
136  1  0.7808 10.779200 10.878400 17.824500
137  1  0.8180 13.058800 14.373400 17.632800
138  1  0.7852 15.176300 17.925800 18.797000
139  1  0.7418  8.413240 21.312600 18.366100
140  1  0.7945 11.106200  2.919360 18.118000
141  1  0.7492 13.291100  6.966380 18.257400
142  1  0.8379 15.093300 10.557500 17.644400
143  1  0.7340 12.862000 21.469100 18.417300
144  1  0.7620 14.810000  2.908150 18.585900
145  2 -0.8984  0.279817 14.353900 29.838000
146  2 -0.8597  1.791940 18.410900  0.094413
147  2 -0.8348 -0.336065  6.964530 30.052200
148  2 -0.8769  1.939880 10.801600 29.537700
149  2 -0.8934  4.467780 14.830600 29.945200
150  2 -0.8574  6.670320 18.148600 29.835600
151  2 -0.8565  0.149173 21.568700 29.512300
152  2 -0.8817  1.929680  3.363110  0.034128
153  2 -0.9446  4.135270  7.224800 -0.418371
154  2 -0.8358  6.322450 11.105200 29.963600
155  2 -0.9237  8.271990 14.335200 29.637200
156  2 -0.8308 10.260500 18.272200 29.764900
157  2 -0.8638  4.461100 22.074800 -0.304146
158  2 -0.8921  6.190090  3.755450 -0.242009
159  2 -0.8951  8.312180  7.427030 29.441900
160  2 -0.7873 10.507500 10.676800 -0.777625
161  2 -0.8229 12.706800 14.414700 -0.399963
162  2 -0.8337 14.539900 18.128200  0.103691
163  2 -0.8194  8.369320 22.018200 29.769400
164  2 -0.9017 10.343900  3.389350 -0.207358
165  2 -0.9209 12.579200  7.224790 -0.108278
166  2 -0.8275 14.651600 10.654200 29.375400
167  2 -0.8659 12.067400 21.799900 29.915900
168  2 -0.8035 14.487000  3.488810 -0.268232
169  2 -0.2633  2.254330 15.745000 26.195600
170  2 -0.4581  4.010360 19.580400 26.584900
171  2 -0.3070  2.284860  7.811400 26.224900
172  2 -0.4077  4.237190 12.488300 26.642700
173  2 -0.3301  6.456000 16.071100 26.451000
174  2 -0.3122  8.366280 19.004900 26.179000
175  2 -0.4006  1.883540  1.322980 26.486100
176  2 -0.3261  4.309500  4.934150 26.031900
177  2 -0.3682  5.813230  8.404480 26.200200
178  2 -0.3295  8.628240 11.478000 25.862000
179  2 -0.4219 10.567400 15.915000 26.371800
180  2 -0.4084 12.627700 19.256900 26.425500
181  2 -0.3494  6.107230  1.270170 26.618300
182  2 -0.3724  7.926990  4.649070 26.272300
183  2 -0.3579 10.871300  8.041310 26.201600
184  2 -0.3110 12.885700 11.982500 25.995200
185  2 -0.4184 14.530200 15.799200 26.584400
186  2 -0.3140 -0.575541 19.528600 26.336500
187  2 -0.3956 10.519300  1.379850 26.538500
188  2 -0.3169 12.812700  4.467880 26.311700
189  2 -0.3055 15.467100  8.134700 26.161800
190  2 -0.3166  0.537195 11.774600 26.001700
191  2 -0.3667 14.702200  0.732834 26.846200
192  2 -0.2506 16.165300  4.348620 26.292300
193  2 -0.3747  0.496682 14.482700 23.250000
194  2 -0.4019  2.686860 17.623800 23.442000
195  2 -0.2923  0.067152  7.362360 23.192000
196  2 -0.2824  2.610720 10.297900 23.121700
197  2 -0.2917  4.804450 13.843500 23.039100
198  2 -0.3251  6.562160 18.153800 23.802400
199  2 -0.4013 16.808600 21.640600 23.729500
200  2 -0.3401  2.135420  3.840990 23.647100
201  2 -0.3716  4.260320  7.191790 23.168500
202  2 -0.3422  6.619870 10.660000 22.865800
203  2 -0.3295  8.647980 14.532500 23.344500
204  2 -0.3276 10.201600 18.252600 23.829500
205  2 -0.3557  4.459710 22.348400 23.732700
206  2 -0.2669  6.484340  3.170560 23.274400
207  2 -0.3926  8.564880  7.611810 23.391600
208  2 -0.3606 11.103800 10.835800 23.360800
209  2 -0.4033 12.844000 14.399300 23.385600
210  2 -0.3771 15.021100 17.754100 23.513600
211  2 -0.3226  8.912980  0.433157 23.458000
212  2 -0.4041 10.837100  3.596110 22.992800
213  2 -0.3580 13.089400  6.848190 23.091200
214  2 -0.4296 14.870700 10.256200 23.055700
215  2 -0.3516 12.775700 -0.214799 23.732400
216  2 -0.2954 14.657300  2.889880 23.459200
217  2 -0.9152  2.563670 12.960100  9.822340
218  2 -0.9052  4.370410 16.685000  9.600120
219  2 -0.8052  2.249650  5.602640  9.828090
220  2 -0.7817  4.278420  9.375530  9.665860
221  2 -0.9091  6.590870 13.418600  9.932090
222  2 -0.8379  8.804730 16.730000  9.856070
223  2 -0.9174  2.495700 20.513200  9.749310
224  2 -0.9321  4.512640  2.084990  9.584380
225  2 -0.8452  5.985860  6.160830  9.595450
226  2 -0.8816  8.314280  9.365060  9.749950
227  2 -0.8601 10.547900 12.759600  9.940620
228  2 -0.9099 12.491800 16.681600  9.848720
229  2 -0.9078  6.840790 20.264000  9.762310
230  2 -0.9493  8.376450  1.914030  9.581290
231  2 -0.8993 10.445300  5.621640  9.735460
232  2 -0.8257 12.848600  9.227660  9.682010
233  2 -0.9348 15.002900 13.158700  9.921340
234  2 -0.8635  0.155848 16.483100  9.918790
235  2 -0.9057 10.809000 19.972000 10.266600
236  2 -0.8254 12.799900  1.594950 10.188800
237  2 -0.8776 14.526200  5.970520  9.915960
238  2 -0.8394 -0.125384  9.418610  9.747050
239  2 -0.9575 14.615900 20.335000  9.954460
240  2 -0.8218  0.130551  2.152130 10.025000
241  2 -0.3112  0.064388 14.404600  6.107880
242  2 -0.2894  1.684590 17.742700  6.753280
243  2 -0.4339 -0.098886  6.818960  6.192560
244  2 -0.3115  2.360120 10.379700  5.875040
245  2 -0.3659  4.284910 14.155600  6.335530
246  2 -0.3804  6.153850 17.753300  6.496210
247  2 -0.3364  0.476614 21.331200  6.592060
248  2 -0.3900  2.110840  3.100480  6.463060
249  2 -0.3095  4.074940  7.045960  6.338600
250  2 -0.3736  6.215630 10.548800  6.225980
251  2 -0.3750  8.120690 14.642400  6.452810
252  2 -0.3334 10.560800 18.147300  6.273220
253  2 -0.2917  4.586650 21.812100  6.069510
254  2 -0.3350  6.566040  3.386070  6.178980
255  2 -0.3607  8.685510  7.140960  6.325970
256  2 -0.3250 10.781300 10.841200  6.405410
257  2 -0.2708 12.443100 14.095900  6.181010
258  2 -0.2265 14.859200 17.993400  6.200180
259  2 -0.3553  8.779430 21.778600  6.309220
260  2 -0.2933 10.593400  3.526330  6.227020
261  2 -0.3570 12.432300  7.058350  6.041100
262  2 -0.2567 14.592200 10.395900  6.123210
263  2 -0.2340 12.604400 21.792900  6.132420
264  2 -0.2991 14.670200  2.928330  6.251860
265  2 -0.3609  2.218230 13.229300  3.532030
266  2 -0.3132  3.978850 17.488200  3.317690
267  2 -0.3393  2.310370  5.957980  3.421070
268  2 -0.3121  4.314240  9.656550  3.119020
269  2 -0.2732  7.128790 13.217900  3.667110
270  2 -0.3319  8.445580 17.290800  3.629500
271  2 -0.3116  2.310040 20.595700  3.492040
272  2 -0.3269  4.036470  2.298800  3.299290
273  2 -0.3680  6.095010  6.195390  3.010640
274  2 -0.2320  8.331190  9.256980  3.624840
275  2 -0.3835 10.652400 13.163800  3.304900
276  2 -0.3067 12.864700 17.046400  3.507130
277  2 -0.3922  6.368200 20.784000  3.313710
278  2 -0.3281  8.640860  2.228330  3.416860
279  2 -0.3410 10.352200  6.171160  3.436810
280  2 -0.3151 12.501500 10.046400  3.416640
281  2 -0.3520 14.734400 12.973000  3.512590
282  2 -0.3430 -0.058097 16.771600  3.337420
283  2 -0.3261 10.591900 20.754700  3.616200
284  2 -0.2903 12.525000  2.159360  3.513970
285  2 -0.3018 14.389600  5.691340  3.774080
286  2 -0.3193 -0.405237  9.007930  3.379340
287  2 -0.3496 14.646100 20.434300  3.480210
288  2 -0.4054 -0.078630  2.109080  2.934620
289  2 -0.8472  2.483990 15.635400 20.041500
290  2 -0.8589  4.441180 19.512900 20.173600
291  2 -0.9086  2.340610  8.155580 19.840000
292  2 -0.8884  4.590000 11.765600 19.593100
293  2 -0.8146  6.299740 15.116900 19.414100
294  2 -0.8805  8.793710 19.130000 19.884400
295  2 -0.9254  1.967250  1.079460 20.794700
296  2 -0.8082  4.725970  4.425910 20.110900
297  2 -0.8106  6.648030  8.060130 19.966900
298  2 -0.8138  8.890890 11.766000 19.830900
299  2 -0.7664 10.667100 15.530200 20.019200
300  2 -0.8177 13.051600 19.065200 20.516000
301  2 -0.8141  6.517040  0.718214 20.365200
302  2 -0.7831  8.708840  4.654960 19.668900
303  2 -0.8532 10.723800  8.444710 19.695400
304  2 -0.7905 13.106000 11.955600 19.034600
305  2 -0.8211 14.917700 15.418700 20.235700
306  2 -0.8716  0.102070 19.286600 20.217100
307  2 -0.9004 10.864200  0.776034 20.128600
308  2 -0.8976 12.726500  4.402190 19.867900
309  2 -0.9493 15.055500  8.423810 19.491700
310  2 -0.9147 -0.028679 12.062900 19.732300
311  2 -0.9080 14.810300  0.659087 20.350600
312  2 -0.9044  0.036395  4.491250 20.097800
313  2 -0.3248  2.175570 12.683500 15.997400
314  2 -0.3914  3.968640 17.143600 16.550000
315  2 -0.4248  2.034360  5.234200 16.379900
316  2 -0.3337  3.748080  9.113860 15.897300
317  2 -0.3004  5.998100 12.803800 15.677200
318  2 -0.3447  8.687990 16.791600 16.175100
319  2 -0.3525  2.339860 20.212900 17.048500
320  2 -0.3854  4.036760  1.763830 16.644100
321  2 -0.3440  6.397310  5.358880 16.038700
322  2 -0.3173  8.404140  9.537770 15.864100
323  2 -0.3628 10.946200 13.143500 15.947500
324  2 -0.3805 13.211200 17.039600 16.760100
325  2 -0.3911  6.319030 20.685000 16.738300
326  2 -0.3438  8.779420  1.710220 16.488200
327  2 -0.3368 10.914100  5.260760 16.647200
328  2 -0.3057 12.997200  9.286410 16.030800
329  2 -0.3486 15.138800 13.398400 16.130800
330  2 -0.2208 17.045100 16.799000 16.220700
331  2 -0.3373 10.948700 20.016300 16.338500
332  2 -0.3303 13.231900  1.996930 16.474700
333  2 -0.3097 14.627000  5.248260 16.381700
334  2 -0.3253 16.840400  9.394270 15.924400
335  2 -0.3517 15.222100 20.036100 17.062400
336  2 -0.3725 -0.300034  1.758460 16.895900
337  2 -0.3681  2.422420 15.722500 13.008100
338  2 -0.3017  4.619640 19.453200 13.284300
339  2 -0.3396  2.153400  7.818300 13.109100
340  2 -0.3604  4.172690 11.556400 12.886700
341  2 -0.3277  6.618690 15.578600 13.615600
342  2 -0.3570  8.810850 18.693000 13.203700
343  2 -0.2511  2.235230  0.618706 13.480900
344  2 -0.2593  4.042510  3.979850 13.646200
345  2 -0.3474  6.031920  8.655560 13.092400
346  2 -0.3708  8.288990 12.122200 13.444300
347  2 -0.3040 11.039500 15.492000 13.684000
348  2 -0.3614 13.097600 18.999000 13.624300
349  2 -0.3635  6.716260  0.481700 13.297400
350  2 -0.3554  8.394330  4.514700 13.193600
351  2 -0.4529 10.236500  8.248950 12.904800
352  2 -0.2869 12.986100 11.905700 13.721100
353  2 -0.3393 15.108000 15.399700 13.282800
354  2 -0.3838  0.059948 19.354800 12.958100
355  2 -0.3388 11.162100  0.440545 13.749300
356  2 -0.3472 12.355400  4.368820 13.387800
357  2 -0.3470 14.687700  8.288600 13.159900
358  2 -0.3462  0.065293 11.972900 13.274500
359  2 -0.2280 15.049700  0.917395 13.816600
360  2 -0.2674 -0.200600  4.181740 13.667200

