Generated by pymatgen.io.lammps.data.LammpsData

360  atoms

  2  atom types

0.000000 16.677463  xlo xhi
0.000000 21.699897  ylo yhi
0.000000 28.493178  zlo zhi

Masses

1  208.9804
2   78.9600

Atoms

1    1  0.7558  1.835090 12.411000 20.657800
2    1  0.7428  3.604420 16.263500 20.320800
3    1  0.8453  1.900760  5.274120 20.467200
4    1  0.7814  4.185760  9.162400 21.540200
5    1  0.7528  5.776950 13.039500 20.568400
6    1  0.6911  8.211790 16.570100 20.475400
7    1  0.7680  1.674570 20.445500 20.762900
8    1  0.8083  4.025560  2.547970 20.484000
9    1  0.7685  6.031500  5.325400 20.406100
10   1  0.8221  7.792790  9.290150 20.757200
11   1  0.7977 10.140300 12.542300 20.572700
12   1  0.7000 11.917600 16.418700 20.725800
13   1  0.8021  5.458690 20.104900 21.233200
14   1  0.7898  8.002660  2.382480 20.467600
15   1  0.7769  9.504700  5.881080 20.967500
16   1  0.7732 12.096700  9.189810 21.219900
17   1  0.7104 14.145300 12.910900 20.762400
18   1  0.6923 16.297800 16.387800 20.439600
19   1  0.8144  9.609740 20.142400 20.601200
20   1  0.8390 11.964400  2.219760 20.612800
21   1  0.7337 14.380300  5.261410 20.970100
22   1  0.8374 16.160500  9.263120 21.050900
23   1  0.8533 14.133200 20.123200 21.021100
24   1  0.8280 16.386300  2.328260 21.375700
25   1  0.7530  1.631520 13.017800 26.636700
26   1  0.8735  4.153670 16.626700 26.809400
27   1  0.8475  1.939180  6.410220 26.856800
28   1  0.7001  3.716710  9.557620 26.807700
29   1  0.8362  5.751070 12.526300 26.788100
30   1  0.7518  7.886910 16.342400 27.067100
31   1  0.7308  1.107170 20.754500 26.907200
32   1  0.7526  4.152000  1.957830 27.122600
33   1  0.7501  6.148560  5.557030 26.628600
34   1  0.7837  7.628560  9.112660 27.241300
35   1  0.9224  9.492430 12.721700 27.139800
36   1  0.7495 11.997600 16.405600 26.788900
37   1  0.7693  6.037650 20.146900 26.761800
38   1  0.7882  7.907240  2.471520 26.639800
39   1  0.7183  9.963450  5.701540 26.823200
40   1  0.7894 11.684100  9.984860 27.123000
41   1  0.8310 14.173100 13.467800 26.532300
42   1  0.7696 15.824500 16.270300 27.843700
43   1  0.7582  9.748780 19.979700 26.665800
44   1  0.8584 11.766400  2.348110 26.762200
45   1  0.7793 13.833700  5.951690 26.449200
46   1  0.8571 15.667900  9.231300 26.884700
47   1  0.8319 13.607500 20.848300 27.248600
48   1  0.7860 15.767200  2.600120 26.571400
49   1  0.7961  1.713780 15.161000  1.403800
50   1  0.7965  4.110210 19.196400  1.634840
51   1  0.7964  2.203200  7.881300  2.665220
52   1  0.6304  3.367120 11.593400  1.670850
53   1  0.8203  5.633270 15.975500  1.848960
54   1  0.8550  8.058280 18.937500  1.956560
55   1  0.6843  1.607590  0.863574  1.121460
56   1  0.8247  4.147640  4.575480  2.331930
57   1  0.7307  5.986440  7.871020  1.672580
58   1  0.8080  7.732360 11.604300  2.179820
59   1  0.8324  9.720240 15.606100  1.734390
60   1  0.8390 11.796800 18.923800  1.912640
61   1  0.7154  6.181110  1.260350  2.348700
62   1  0.7750  8.132050  4.062650  2.330030
63   1  0.7852 10.282100  7.947080  1.794630
64   1  0.8046 11.878600 11.566500  1.842480
65   1  0.8288 13.931700 15.478600  2.335750
66   1  0.7227 15.975700 19.507000  1.179130
67   1  0.9217  9.875270  1.059720  1.821000
68   1  0.7798 11.948600  4.498860  1.270450
69   1  0.7593 14.367000  7.846890  1.596500
70   1  0.6808 16.603900 11.088700  2.307250
71   1  0.7856 14.030700  1.119800  2.084280
72   1  0.7831 15.756200  4.374550  1.478020
73   1  0.8328  0.385943 15.295100  7.752550
74   1  0.8610  3.324880 18.552000  7.766310
75   1  0.7664  2.045540  8.003360  7.970410
76   1  0.8307  3.842780 11.394800  7.998620
77   1  0.8321  4.993730 15.048600  7.788820
78   1  0.8712  7.834770 19.028400  8.394390
79   1  0.7532  1.155920  0.413872  7.841280
80   1  0.7123  3.278220  3.980550  7.772960
81   1  0.8158  5.907420  7.642720  7.174500
82   1  0.7805  7.620570 11.357300  8.109630
83   1  0.8710  9.930770 15.754000  8.194290
84   1  0.7628 11.895800 18.967000  7.760130
85   1  0.8095  5.627140  0.492727  7.872160
86   1  0.7670  8.105610  4.698800  7.587200
87   1  0.8126  9.730700  8.329500  7.811910
88   1  0.8400 10.078800 11.716800  5.652390
89   1  0.8698 12.560900 12.907600  8.041950
90   1  0.8449 15.583700 18.701400  5.674830
91   1  0.8675  9.828970  0.878775  7.589370
92   1  0.7479 12.216300  4.308020  8.277950
93   1  0.7951 14.259900  8.072330  7.757390
94   1  0.8019 16.043900 11.263700  7.231300
95   1  0.6499 13.978700  0.730827  7.762370
96   1  0.7204 16.335600  4.232430  7.851800
97   1  0.8379 16.310700 13.677500 11.717700
98   1  0.8778  1.857790 17.881400 11.758900
99   1  0.7738 16.282000  6.815050 11.786500
100  1  0.8259  1.592380 10.508400 11.517200
101  1  0.7733  3.681130 13.826500 10.794600
102  1  0.7770  5.661720 17.857600 11.371200
103  1  0.8357 16.216300 21.189300 11.477800
104  1  0.8328  1.605530  3.169540 10.949400
105  1  0.8297  3.871110  6.817560 11.309300
106  1  0.9196  5.959160 10.235300 11.241100
107  1  0.7817  7.395060 14.430800 11.282300
108  1  0.8246  9.993640 17.642400 11.435200
109  1  0.8705  3.835770 21.381000 11.109400
110  1  0.7613  6.216250  3.415920 10.867100
111  1  0.8480  8.591280  7.070560 11.903400
112  1  0.7804  9.552890 10.592700 10.736500
113  1  0.7386 11.833300 14.318300 11.573500
114  1  0.8702 14.313500 17.229900 11.186000
115  1  0.8410  7.882170 21.046500 11.555500
116  1  0.7865 10.204700  2.777290 11.790600
117  1  0.8329 12.615300  6.905890 11.234200
118  1  0.7750 14.220800 10.550500 11.145500
119  1  0.7347 12.501100 21.057600 10.813200
120  1  0.7633 13.941100  2.787450 11.152400
121  1  0.7924 16.438200 13.453000 17.557200
122  1  0.7737  1.457060 17.665300 17.497900
123  1  0.7687 16.604400  6.455960 16.963300
124  1  0.8468  1.956710 10.122000 17.454900
125  1  0.9422  3.597840 14.226200 16.899800
126  1  0.8817  5.722860 17.888100 17.054900
127  1  0.7813  0.041429 21.368000 17.275500
128  1  0.7552  2.059680  3.095630 16.840000
129  1  0.8247  3.605770  7.323320 17.969300
130  1  0.8009  5.686620 10.259400 17.185200
131  1  0.8248  7.662620 13.879200 17.290000
132  1  0.7634 10.429600 17.895400 17.393200
133  1  0.8832  3.891180 21.417900 17.472600
134  1  0.7877  5.914130  3.410290 16.604000
135  1  0.8059  8.151600  6.746370 17.080500
136  1  0.8371  9.743690 10.284300 17.516000
137  1  0.7720 11.888800 13.943800 16.942300
138  1  0.7770 14.490400 17.995200 16.896400
139  1  0.8218  7.675370  0.010028 17.459300
140  1  0.7468  9.557290  2.934900 16.702000
141  1  0.8553 12.357200  6.528960 17.838200
142  1  0.8229 14.050000  9.926160 17.196600
143  1  0.8062 12.067500  0.042735 17.191600
144  1  0.8175 14.802100  2.942290 17.422300
145  2 -0.7939 15.657500 14.046400  0.516271
146  2 -0.7233  2.110730 17.346400  0.106222
147  2 -0.7561 16.347200  7.058290 28.391900
148  2 -0.8289  1.550780 10.351400 28.120300
149  2 -0.8031  3.898110 14.072600  0.065022
150  2 -0.9689  5.785220 17.797800 28.478100
151  2 -0.9667 15.673700  0.140793  0.216721
152  2 -0.6456  1.772640  3.737970  0.180121
153  2 -0.8264  3.571370  6.689570  0.736817
154  2 -0.8972  6.008400 10.526100  0.474670
155  2 -0.7764  7.347070 14.073200  0.075888
156  2 -0.9400 10.024600 17.977100  0.451940
157  2 -0.8500  3.666220 21.016500 28.006700
158  2 -0.9233  6.118010  3.495870  0.013222
159  2 -0.8763  8.379950  6.913950  0.270985
160  2 -0.8741  9.648020 10.611600  0.321950
161  2 -0.7561 11.349400 13.677200  0.188351
162  2 -0.8457 13.767400 17.682400  0.354511
163  2 -0.8141  8.045220 21.522800  0.539811
164  2 -0.9460 10.107700  2.858860  0.201675
165  2 -0.9117 12.115200  7.138050 28.310800
166  2 -0.7851 13.890500 10.816800 28.078100
167  2 -0.7756 11.409700 21.561200 28.437900
168  2 -0.9669 13.828100  3.695440 27.995200
169  2 -0.3032  2.215520 15.894400 25.246800
170  2 -0.3182  4.080050 19.034800 25.265800
171  2 -0.3067  0.953274  8.460140 25.107400
172  2 -0.4469  3.706020 11.706800 25.105800
173  2 -0.3142  6.140130 15.375600 25.182700
174  2 -0.3408  8.000430 18.654600 24.623200
175  2 -0.3635  1.799190  1.233890 25.388000
176  2 -0.3470  3.609840  4.699430 25.541800
177  2 -0.4616  5.642500  8.300170 25.255000
178  2 -0.4717  7.983660 11.557800 25.734800
179  2 -0.4841  9.770050 14.993000 25.733800
180  2 -0.2629 11.980600 19.712900 25.092900
181  2 -0.3185  5.727710  0.531397 25.069300
182  2 -0.4180  7.849050  4.485090 24.960300
183  2 -0.2767  9.466300  7.806790 24.940800
184  2 -0.2614 12.024900 12.033200 24.865900
185  2 -0.5361 14.581900 15.857600 25.830600
186  2 -0.3080 15.310500 19.286000 25.651700
187  2 -0.3386  9.476520  1.131500 25.116400
188  2 -0.3029 11.797700  4.450170 24.486600
189  2 -0.4078 13.623500  8.678760 25.151200
190  2 -0.3268 16.308700 12.069900 25.193800
191  2 -0.5033 13.671800  0.978473 25.636000
192  2 -0.3638 16.296300  4.970250 25.203700
193  2 -0.2890 16.528700 14.005300 22.597700
194  2 -0.2711  0.780947 18.492400 22.728300
195  2 -0.3492  0.007937  7.073910 22.386200
196  2 -0.4224  1.272050 10.788400 22.407400
197  2 -0.3425  3.592730 14.311400 22.388000
198  2 -0.3768  5.813980 17.218100 22.179700
199  2 -0.3980 16.153700  0.083203 22.530700
200  2 -0.3856  1.815990  3.638090 22.434500
201  2 -0.3338  4.174190  6.238480 22.329200
202  2 -0.4154  6.188280 11.112200 22.387000
203  2 -0.3553  8.788050 14.398700 22.092400
204  2 -0.3381 10.425200 18.345800 22.621400
205  2 -0.4805  3.483220  0.310018 21.818300
206  2 -0.3798  6.164210  3.195190 22.289100
207  2 -0.3807  7.473310  7.197880 22.413700
208  2 -0.3724 10.171900 10.266000 22.448000
209  2 -0.4394 12.237300 14.245000 22.200100
210  2 -0.2562 14.072800 17.656000 22.675800
211  2 -0.3115  7.228550 21.680500 22.473200
212  2 -0.3936  9.730180  3.144550 22.206400
213  2 -0.3845 11.647100  6.651200 22.651600
214  2 -0.3465 14.480600 11.077400 22.696700
215  2 -0.2990 11.596500 21.465300 22.172100
216  2 -0.5014 14.425400  3.254910 22.565700
217  2 -0.7285  1.443270 12.491400  9.253140
218  2 -0.8106  3.326440 16.523900  9.454960
219  2 -0.8804  1.531720  5.614060  9.873190
220  2 -0.8041  3.879930  9.433290  9.904080
221  2 -0.8774  5.756980 13.013900  9.622950
222  2 -0.8689  7.795360 16.658600  9.667820
223  2 -0.7839  1.893270 19.717000  9.773560
224  2 -0.8697  3.847670  1.853430  9.611400
225  2 -0.7358  6.259340  6.042610  9.928380
226  2 -0.8835  7.657700  9.127020  9.627610
227  2 -0.7005  9.861700 13.321800  9.377330
228  2 -0.8331 12.042300 16.804200 10.193200
229  2 -0.8964  5.640560 19.941200  9.470600
230  2 -0.7303  8.096900  1.522140 10.025800
231  2 -0.7612 10.111500  5.599780  9.862870
232  2 -0.6986 12.280500  8.795220  9.444870
233  2 -0.7539 14.395600 12.960700  9.749630
234  2 -0.7026 16.204800 15.925900 10.268500
235  2 -0.8177  9.850330 20.090500  9.681700
236  2 -0.8690 11.407700  1.758280  9.679690
237  2 -0.8797 14.340800  5.086710  9.967130
238  2 -0.8036  0.128937  9.274510  9.357060
239  2 -0.8119 14.167300 19.759100  8.963590
240  2 -0.9033 16.428700  1.624820 10.121400
241  2 -0.3286 15.191400 13.803300  6.206240
242  2 -0.4546  1.559170 17.840400  6.270360
243  2 -0.3712 15.864500  6.686930  6.186960
244  2 -0.4304  2.075780 10.256400  6.077930
245  2 -0.3719  3.138300 13.787500  6.420760
246  2 -0.2230  5.840380 17.518200  5.955170
247  2 -0.4570 15.857800  0.042803  6.126660
248  2 -0.3546  1.394860  2.543990  6.157020
249  2 -0.5106  3.736530  6.418310  6.305590
250  2 -0.5336  5.860880 10.490100  6.395880
251  2 -0.4525  7.572390 13.996800  7.319600
252  2 -0.3703  9.772920 17.852400  6.444050
253  2 -0.2786  3.760500 20.819800  5.873370
254  2 -0.4857  5.674750  3.059610  6.439140
255  2 -0.4752  8.053740  6.821090  6.097710
256  2 -0.7037 10.460800 10.843900  8.087380
257  2 -0.4122 11.065600 14.400000  6.343120
258  2 -0.3850 13.948700 16.590700  6.956610
259  2 -0.4438  7.882630 21.032300  6.645880
260  2 -0.4369 10.395100  3.104890  6.504690
261  2 -0.2457 11.798500  7.192230  6.101040
262  2 -0.4802 13.308500 10.614800  6.889810
263  2 -0.3459 11.629800 21.126400  5.583170
264  2 -0.3581 14.350800  3.312560  6.224810
265  2 -0.4097  1.094580 13.440500  3.447700
266  2 -0.2708  3.248380 17.055000  3.539030
267  2 -0.2415  1.467650  4.926940  3.527840
268  2 -0.3650  4.029050  8.921360  4.252600
269  2 -0.2742  4.952300 14.271500  3.832690
270  2 -0.4179  7.988720 16.669500  3.419380
271  2 -0.3052  1.313220 20.481800  3.379880
272  2 -0.3796  3.792880  2.063060  3.628440
273  2 -0.4764  6.195660  5.843090  3.525730
274  2 -0.3758  8.643860  9.171170  4.288330
275  2 -0.5664  9.802780 13.047100  3.047490
276  2 -0.4669 11.718600 16.572900  3.326950
277  2 -0.4191  6.087610 19.939900  3.356220
278  2 -0.3804  8.259260  1.825920  4.101230
279  2 -0.3689 10.109400  5.180070  3.360650
280  2 -0.3918 11.777000  9.637810  4.076880
281  2 -0.3662 13.722900 12.502700  3.669000
282  2 -0.4721 16.487100 16.915600  2.862540
283  2 -0.3350  9.527580 20.674100  3.490230
284  2 -0.3437 11.974600  2.736670  3.411170
285  2 -0.3839 14.006100  5.749300  3.146940
286  2 -0.5427 16.312400  8.409940  3.252630
287  2 -0.5545 14.343800 20.229700  3.175400
288  2 -0.2953 16.451400  1.959720  3.187700
289  2 -0.8825  1.846810 14.899900 18.831800
290  2 -0.8469  3.623970 19.122600 18.993000
291  2 -0.8108  1.772590  7.802550 19.490600
292  2 -0.8525  3.663950 11.824400 18.614800
293  2 -0.8370  5.591520 15.314100 18.750800
294  2 -0.8269  7.721140 19.428600 19.175000
295  2 -0.8721  1.891700  0.921556 18.818700
296  2 -0.8940  3.861970  4.678100 18.700200
297  2 -0.8951  5.668660  8.064440 19.548400
298  2 -0.9129  8.053340 11.614700 19.078600
299  2 -0.8592  9.930490 15.287400 18.407100
300  2 -0.7771 12.243100 19.575400 19.240100
301  2 -0.8842  5.757820  1.276210 18.547600
302  2 -0.9157  8.008110  4.513040 18.517400
303  2 -0.8264  9.988750  8.007620 19.267300
304  2 -0.8563 11.956400 11.155700 19.097100
305  2 -0.8311 14.127800 15.363500 18.930500
306  2 -0.8888 16.149000 18.899500 18.782300
307  2 -0.8444  9.988160  0.885175 19.121900
308  2 -0.7607 12.030100  4.118460 18.840700
309  2 -0.7921 14.563300  7.453840 19.154400
310  2 -0.8395 16.282400 10.994900 18.813400
311  2 -0.7525 14.362500  0.727850 19.070900
312  2 -0.8938 16.582500  4.193610 18.897700
313  2 -0.3884  1.563280 12.429600 15.942300
314  2 -0.4561  3.545960 16.613500 15.939500
315  2 -0.3335  2.409830  5.630530 15.404600
316  2 -0.4149  3.823750  8.844740 15.862800
317  2 -0.4012  5.698120 12.822100 15.787500
318  2 -0.3241  8.247100 17.325700 16.017200
319  2 -0.3633  2.346230 20.159000 15.755800
320  2 -0.2910  4.098620  1.508800 15.158300
321  2 -0.3488  5.434880  6.114900 15.806300
322  2 -0.4125  7.760970  9.676340 15.757000
323  2 -0.2990  9.583970 12.696800 15.416500
324  2 -0.3235 11.925700 16.824100 15.283600
325  2 -0.3825  5.801020 20.208800 15.929800
326  2 -0.4379  7.823340  1.419690 15.116200
327  2 -0.4292 10.071100  5.639030 15.956500
328  2 -0.4071 11.907300  8.710020 16.273000
329  2 -0.3416 13.656800 12.373800 15.473500
330  2 -0.3957 16.408900 15.938000 15.879800
331  2 -0.3490  9.768160 20.157700 15.859200
332  2 -0.3287 12.714800  2.091910 15.632400
333  2 -0.3768 14.297300  5.473550 15.962700
334  2 -0.3713  0.140410  9.303690 15.736700
335  2 -0.3267 14.453700 20.676500 15.551700
336  2 -0.3190 16.148000  1.906720 15.284600
337  2 -0.4157  2.337520 15.447700 12.787100
338  2 -0.4092  3.955140 19.197500 12.952100
339  2 -0.3054  2.263360  8.517440 13.259800
340  2 -0.4150  3.935830 12.029300 12.577600
341  2 -0.2980  6.259720 15.916100 13.440800
342  2 -0.4336  7.958040 18.529300 12.792900
343  2 -0.3859  1.896760  0.938112 12.524700
344  2 -0.3438  3.999520  4.456920 12.750300
345  2 -0.3838  6.263520  8.369660 12.793900
346  2 -0.3868  7.562370 11.891600 12.665500
347  2 -0.3254  9.989090 15.375500 13.487900
348  2 -0.3545 12.907800 18.992500 12.830300
349  2 -0.3373  6.077540  1.093520 12.745600
350  2 -0.3822  8.070680  4.677990 13.459000
351  2 -0.3389 10.489600  8.208710 13.063100
352  2 -0.3644 11.701300 11.567600 12.726400
353  2 -0.3444 14.540600 15.407100 13.522700
354  2 -0.3765 16.598500 19.229900 13.292100
355  2 -0.3331 10.987800 21.642600 12.980500
356  2 -0.3511 12.334000  4.198470 13.061100
357  2 -0.5022 14.138600  8.379100 12.665700
358  2 -0.4646 16.301400 11.380900 13.067900
359  2 -0.3172 14.402600  0.738680 13.077100
360  2 -0.3084 16.184000  4.586830 13.307900

