Generated by pymatgen.io.lammps.data.LammpsData

360  atoms

  2  atom types

0.000000 16.677463  xlo xhi
0.000000 21.699897  ylo yhi
0.000000 28.493178  zlo zhi

Masses

1  208.9804
2   78.9600

Atoms

1    1  0.7588  2.391650 13.243400 19.686400
2    1  0.7378  4.197240 16.012500 20.511200
3    1  0.7617  2.477620  5.826030 20.022400
4    1  0.8060  4.701450  9.751980 19.862700
5    1  0.7849  7.304470 13.042500 20.127800
6    1  0.8273  9.073400 16.605300 19.965000
7    1  0.7352  2.009970 19.960500 20.243800
8    1  0.6921  5.104060  2.585300 19.434400
9    1  0.7415  6.686140  6.485250 20.141600
10   1  0.8626  8.036850  9.611860 20.697100
11   1  0.7334 10.834000 12.529100 20.016200
12   1  0.7864 13.115400 16.680300 19.668600
13   1  0.6699  6.070580 20.058900 20.006300
14   1  0.7334  9.080380  2.593680 20.319400
15   1  0.7678 11.207400  5.548760 20.566900
16   1  0.8334 12.675700  8.794780 19.991500
17   1  0.7478 15.013900 12.838300 19.988200
18   1  0.7059 16.565300 16.870600 19.532200
19   1  0.8619 10.943700 20.448700 19.951900
20   1  0.7914 12.861600  2.024170 20.916500
21   1  0.8434 14.920400  6.025170 20.410700
22   1  0.6135  0.442773  8.796650 20.139700
23   1  0.7887 15.025900 20.330300 20.237200
24   1  0.8280  0.500267  2.181920 20.875600
25   1  0.7002  2.074110 13.035900 26.927700
26   1  0.7569  5.037560 17.315800 24.444800
27   1  0.8469  2.234420  5.354330 26.368000
28   1  0.7813  4.076360  9.522580 25.980400
29   1  0.8055  6.410120 12.876300 25.766700
30   1  0.7804  8.451420 16.411700 25.783500
31   1  0.7213  2.492310 20.196600 26.247400
32   1  0.8432  4.450730  2.221120 26.036300
33   1  0.8794  6.123860  5.490610 26.245500
34   1  0.7994  8.389000  8.961600 26.040400
35   1  0.8121 10.920200 13.014600 25.615800
36   1  0.7017 12.911100 17.109300 26.985200
37   1  0.7231  6.725940 20.184800 25.661500
38   1  0.8814  8.606660  1.835300 25.153400
39   1  0.7882 10.629800  5.346020 25.974400
40   1  0.7517 12.392400  9.431150 26.673700
41   1  0.8043 14.989300 12.964100 26.317800
42   1  0.8732  0.207972 16.322600 26.366000
43   1  0.8521 11.329100 20.196300 24.697300
44   1  0.7782 12.837600  2.092100 26.495400
45   1  0.8159 14.797900  5.563700 26.526900
46   1  0.8805 15.795800  9.980930 24.189000
47   1  0.8121 15.404600 20.113500 26.941400
48   1  0.8291  0.330292  2.138440 26.381700
49   1  0.8249  2.272470 15.142700  1.060680
50   1  0.6884  4.398920 19.085000  0.398381
51   1  0.8645  2.479240  8.257570  1.352000
52   1  0.6503  4.073520 11.536600  0.647061
53   1  0.7624  6.328700 14.867800  1.165420
54   1  0.9147  8.552070 18.789300  2.074850
55   1  0.8033  2.718300  1.089590  1.114820
56   1  0.8016  5.111140  3.843650  2.667540
57   1  0.8015  6.078780  8.252070  1.341030
58   1  0.7295  8.388410 11.699400  0.945784
59   1  0.7282 10.614800 15.215900  0.556512
60   1  0.7153 13.268400 19.187500  1.836940
61   1  0.8079  6.292440  0.185571  0.936752
62   1  0.8232  8.677330  4.250840  0.728585
63   1  0.7651 10.311300  7.890670  0.700830
64   1  0.7627 12.482700 11.716400  0.852939
65   1  0.8134 15.147800 15.984800  1.587690
66   1  0.7400  1.220180 18.746600  0.783905
67   1  0.7803 11.223500  0.800582  0.881633
68   1  0.7936 13.199200  4.337320  0.874626
69   1  0.8179 14.542400  7.828480  1.341980
70   1  0.7600 16.321300 11.667900  1.007900
71   1  0.8254 15.111300  0.677906  1.102550
72   1  0.8093  0.402017  4.502850  1.155980
73   1  0.8152  2.303270 15.429700  7.177110
74   1  0.7579  4.052590 19.116000  7.358910
75   1  0.7080  2.468220  8.036930  7.032420
76   1  0.8150  4.207710 11.699600  7.247370
77   1  0.8125  6.320150 14.748500  6.430450
78   1  0.8520  9.197790 19.231300  7.165380
79   1  0.8403  2.821160  1.562950  7.479500
80   1  0.7582  5.103670  4.198730  6.502170
81   1  0.7599  6.545340  8.563610  7.632360
82   1  0.7380  8.922980 11.687000  7.408210
83   1  0.8624 10.695100 14.715300  6.826630
84   1  0.7454 13.726700 18.920800  6.782340
85   1  0.7733  6.478350  1.040380  6.877860
86   1  0.8198  8.696810  4.979130  5.900590
87   1  0.8400 11.054200  7.917000  7.437050
88   1  0.7584 12.505000 11.533400  7.432740
89   1  0.7779 15.069200 15.456700  7.007850
90   1  0.6805  0.621332 19.132100  7.786400
91   1  0.8897 11.198400  0.923583  6.325950
92   1  0.7964 12.964300  4.275560  6.984620
93   1  0.8018 15.097100  8.119570  6.776510
94   1  0.7121  0.441297 11.931900  7.378860
95   1  0.7936 15.394700  0.859148  7.217610
96   1  0.8414  0.547356  4.718500  7.014180
97   1  0.8553  0.369918 14.422600 10.762500
98   1  0.7612  2.293720 17.909500 10.545300
99   1  0.7174  0.786285  6.801870 10.887900
100  1  0.7599  2.278710 10.430800 10.778800
101  1  0.8963  4.570840 14.402300 10.516700
102  1  0.7648  6.662030 17.787600 10.422000
103  1  0.7893 16.622400  0.180970 10.680200
104  1  0.8108  2.366680  3.359660 10.707600
105  1  0.7744  4.311850  6.734480 10.072700
106  1  0.8378  6.326900 10.498500 10.709600
107  1  0.8754  8.395720 13.909300 10.159300
108  1  0.7644 10.864600 17.562200 10.164700
109  1  0.7044  5.116230 21.671700 10.241500
110  1  0.7323  7.354450  3.489930 10.164600
111  1  0.8419  9.264990  6.544620 10.169600
112  1  0.9071 11.075900 10.370700 10.545700
113  1  0.8452 12.439700 13.836400 11.316400
114  1  0.8340 15.165000 17.964700 10.422600
115  1  0.8155  8.972100 20.747200 11.378600
116  1  0.7336 10.724700  3.037830  9.890080
117  1  0.8342 13.685200  7.184040 10.392200
118  1  0.8623 14.913800 10.661000 10.828700
119  1  0.8802 12.717700 21.519900 10.358100
120  1  0.6836 14.664900  3.202030  9.743540
121  1  0.7685  0.217337 13.864200 16.729900
122  1  0.8503  2.182890 17.640400 16.426900
123  1  0.7550  0.576112  6.742180 17.053300
124  1  0.8400  2.182950 10.682200 16.657200
125  1  0.8096  4.361770 14.344300 16.420100
126  1  0.7685  7.130760 17.989200 16.905500
127  1  0.8227  0.204130 21.343700 15.975700
128  1  0.7742  2.039990  2.992090 17.852300
129  1  0.8161  5.305160  7.611880 15.649800
130  1  0.7160  6.696480 11.246000 16.088900
131  1  0.7176  8.832420 13.924800 16.999200
132  1  0.7926 10.624300 18.093300 16.626100
133  1  0.7439  4.623260 21.066600 17.051400
134  1  0.8330  6.043150  2.190090 15.312100
135  1  0.7310  8.614710  6.842230 16.698600
136  1  0.8265 10.784400 10.336000 16.644500
137  1  0.8097 12.892100 13.788500 15.953900
138  1  0.7948 14.768200 17.543100 16.281600
139  1  0.7133  9.041230 21.431000 16.435800
140  1  0.7708 10.244000  3.615480 16.964900
141  1  0.8546 12.656400  6.605000 16.621500
142  1  0.8089 15.029100 10.092900 17.124200
143  1  0.7564 13.089000 21.609400 16.596000
144  1  0.8384 14.723900  3.051660 16.894800
145  2 -0.9465  0.083537 14.385800 28.230300
146  2 -0.7958  2.830770 17.425600 27.393000
147  2 -0.6365  0.344877  7.133600 28.474000
148  2 -0.7174  1.948640 10.002400 27.614700
149  2 -0.7772  4.406930 14.345300 27.794400
150  2 -0.6528  6.989470 17.868900 27.885900
151  2 -0.9126  0.559111 21.489100 28.209400
152  2 -0.9132  2.411400  3.310560 27.673800
153  2 -0.7283  4.341710  6.943790 28.081800
154  2 -0.8607  6.277210  9.970790 27.623600
155  2 -0.8203  8.556390 13.928500 27.408600
156  2 -0.6466  9.961050 17.815700 28.048900
157  2 -0.9634  4.499150 21.479100 27.649200
158  2 -0.7389  6.461630  3.229090 27.507000
159  2 -0.7877  8.120370  6.963180 27.769500
160  2 -0.8854 10.277400 10.654100 27.780800
161  2 -0.8458 12.912300 13.785300 27.337000
162  2 -0.9502 15.063900 18.089200 28.427100
163  2 -0.6229  8.533060 21.290700 27.860600
164  2 -0.7795 10.359100  2.922400 27.319400
165  2 -0.9103 12.792300  6.488490 27.943500
166  2 -0.7741 14.676400  9.985930 27.764700
167  2 -0.8110 12.966700 21.036300 27.538100
168  2 -0.9469 15.022200  2.959080 28.238100
169  2 -0.3082  2.308960 15.403300 25.091100
170  2 -0.5352  4.796880 19.910500 24.031900
171  2 -0.3318  1.008180  8.250300 25.206100
172  2 -0.3776  3.971950 12.362600 24.670500
173  2 -0.4006  6.778400 14.729400 24.180800
174  2 -0.4752  9.108870 18.736900 24.114400
175  2 -0.3427  2.257840  0.670396 24.477600
176  2 -0.3328  4.152680  4.503950 24.304700
177  2 -0.3682  6.383840  7.619390 24.439100
178  2 -0.3107  8.649650 11.844500 23.755500
179  2 -0.2247 11.426600 15.831500 24.136400
180  2 -0.3173 13.880600 18.799000 24.790400
181  2 -0.3390  6.543170  1.265010 23.899600
182  2 -0.4543  8.232460  4.403500 24.910600
183  2 -0.3133 10.471000  8.250020 24.274000
184  2 -0.4685 13.138900 11.610000 24.724500
185  2 -0.3261 14.660400 15.498200 25.127100
186  2 -0.2958  0.109233 18.180000 24.778000
187  2 -0.4683 11.240700  1.176250 24.422100
188  2 -0.3711 13.041100  4.302230 24.718700
189  2 -0.3521 14.528000  7.713690 24.820500
190  2 -0.3254  0.189473 12.858700 24.306200
191  2 -0.3414 14.924300  0.725460 24.757700
192  2 -0.4458  0.127379  4.270480 25.006600
193  2 -0.3793  0.258030 14.441500 21.283500
194  2 -0.3103  2.072760 17.735500 22.447600
195  2 -0.4161  0.459320  5.838660 21.905100
196  2 -0.4409  2.305240 10.416900 21.502000
197  2 -0.3768  5.375310 13.993000 21.682300
198  2 -0.4557  6.988170 17.001500 21.656400
199  2 -0.3963  0.359689 21.112500 22.020700
200  2 -0.4916  2.781560  3.391310 21.198700
201  2 -0.5063  4.452420  7.404200 21.293500
202  2 -0.4046  6.247710 10.482400 22.160600
203  2 -0.5068  9.176800 14.257300 21.434500
204  2 -0.4716 10.913900 17.728600 21.077600
205  2 -0.3194  4.782810  0.100368 21.538800
206  2 -0.3117  6.829040  3.678510 21.844600
207  2 -0.4338  9.140890  7.189990 21.681100
208  2 -0.2683 11.105400 10.297800 22.218300
209  2 -0.2978 13.612100 13.399200 21.936100
210  2 -0.3579 15.219200 17.439800 21.560500
211  2 -0.4358  9.377980  0.226703 21.622200
212  2 -0.4257 10.645200  3.780530 22.439000
213  2 -0.4028 13.142700  6.771280 22.059800
214  2 -0.5203 14.645200 10.028400 21.514400
215  2 -0.4914 13.204100 21.380600 21.914900
216  2 -0.3248 14.947400  3.385200 22.227400
217  2 -0.8620  2.656050 13.179500  8.798800
218  2 -0.8460  4.515660 16.531500  8.875930
219  2 -0.8608  2.497410  5.499920  8.728850
220  2 -0.9254  4.470530  9.462340  9.200260
221  2 -0.8433  6.271280 12.627600  8.595520
222  2 -0.7486  8.779470 15.893400  8.450360
223  2 -0.8867  2.784310 20.622600  8.914720
224  2 -0.8467  4.789240  2.672850  8.778290
225  2 -0.7660  6.762970  5.824670  8.538970
226  2 -0.7750  9.230040  8.948930  9.192320
227  2 -0.9549 10.503800 12.692600  9.101150
228  2 -0.6953 12.616800 16.346400  7.872120
229  2 -0.8152  7.875780 20.513800  9.094370
230  2 -0.7429  8.872970  2.020560  8.391570
231  2 -0.9149 11.089200  5.532560  8.551600
232  2 -0.9208 12.864900  9.315650  9.003880
233  2 -0.7283 14.378500 13.300600  9.016990
234  2 -0.9531  0.544483 16.585900  9.088820
235  2 -0.7222 11.569400 20.032400  8.453090
236  2 -0.9219 12.682900  1.869850  8.126630
237  2 -0.8912 15.274800  5.817350  8.698030
238  2 -0.8455 16.512000  9.343470  8.727570
239  2 -0.8840 14.836900 20.506900  9.129490
240  2 -0.9105  0.641274  2.378610  8.891070
241  2 -0.4080  0.305683 14.158100  5.572180
242  2 -0.4602  2.027460 17.951100  5.921310
243  2 -0.3960  0.596968  6.994420  5.178340
244  2 -0.3100  2.428590 10.424400  5.275880
245  2 -0.3639  4.025870 13.871100  5.264700
246  2 -0.3423  6.894660 17.996200  5.925850
247  2 -0.3360  1.026440  0.202577  5.924430
248  2 -0.4609  2.721860  3.153430  5.537890
249  2 -0.4273  4.827400  6.793650  5.318970
250  2 -0.3440  6.766060 10.953800  5.541750
251  2 -0.3763  8.712430 13.836000  5.196260
252  2 -0.2882 10.472900 17.354600  5.302550
253  2 -0.2968  4.542500 21.282300  5.373080
254  2 -0.5461  7.392040  2.709470  5.301480
255  2 -0.4707  8.986500  7.604670  6.011290
256  2 -0.2861 10.830400 10.149900  5.400800
257  2 -0.2765 12.724800 13.619000  5.283540
258  2 -0.3765 14.802600 17.372800  4.614280
259  2 -0.3390  8.681260 20.716100  5.384530
260  2 -0.2943 11.296100  3.278250  4.782100
261  2 -0.3623 13.043700  6.340910  5.296300
262  2 -0.3283 14.717300 10.552100  5.420380
263  2 -0.4627 13.591000 21.387200  5.432330
264  2 -0.2986 15.109800  3.050260  5.271130
265  2 -0.4502  2.011250 12.550000  2.246270
266  2 -0.2648  4.464460 16.530500  2.878100
267  2 -0.3924  2.416430  5.435420  2.895770
268  2 -0.3955  3.928810  9.487080  2.958490
269  2 -0.3907  6.159700 12.614300  2.845600
270  2 -0.3503  7.938300 16.148500  2.915030
271  2 -0.2521  2.623760 20.259600  2.811410
272  2 -0.5337  5.228110  1.533950  2.985450
273  2 -0.4878  6.983520  5.542220  2.899620
274  2 -0.2653  9.039950  8.843140  2.791030
275  2 -0.3024 10.792200 12.730700  2.749580
276  2 -0.4617 12.083400 16.322800  2.382430
277  2 -0.3524  6.441830 19.762200  2.950550
278  2 -0.3601  9.334470  1.908870  2.355100
279  2 -0.4524 10.476800  5.473810  2.077700
280  2 -0.3774 12.481200  9.664460  2.499860
281  2 -0.3118 14.607400 12.985100  2.774210
282  2 -0.4610  0.934716 16.774100  2.510480
283  2 -0.3739 10.442400 20.055600  3.263620
284  2 -0.4929 13.062900  1.806770  2.374830
285  2 -0.4333 14.909300  5.421370  2.702800
286  2 -0.2371  0.235137  9.485020  3.109950
287  2 -0.3521 15.815700 20.096900  2.717230
288  2 -0.3172  1.097750  2.032040  2.729750
289  2 -0.8871  2.553230 15.642300 18.363100
290  2 -0.7913  3.749860 18.959000 18.154200
291  2 -0.6939  3.238750  8.539110 17.709400
292  2 -0.8162  4.522750 12.055100 17.932900
293  2 -0.7681  6.721850 15.110100 18.308200
294  2 -0.8546  8.876440 19.093900 18.704200
295  2 -0.7607  2.575610  0.625150 18.405300
296  2 -0.6672  3.134890  5.577850 17.622100
297  2 -0.8214  7.019390  8.673690 18.619400
298  2 -0.8986  8.870940 11.403200 18.667800
299  2 -0.7589 11.468900 15.546500 17.605600
300  2 -0.8317 12.705000 19.120000 18.355700
301  2 -0.8094  6.906320  0.944842 17.941500
302  2 -0.7814  7.882040  4.399250 17.921700
303  2 -0.7827 10.573100  8.126590 18.256500
304  2 -0.8188 12.655400 11.232800 17.968500
305  2 -0.8891 14.767200 15.368700 17.679800
306  2 -0.8329 16.397600 19.227600 17.934300
307  2 -0.8331 11.174200  1.238820 18.820900
308  2 -0.8574 12.813700  4.728470 18.663200
309  2 -0.9226 14.526100  7.849940 18.507400
310  2 -0.9268  0.365207 11.614800 18.541500
311  2 -0.8025 15.458800  0.790863 18.210200
312  2 -0.8216 16.568200  4.567780 18.831700
313  2 -0.3670  1.897500 12.739500 14.891500
314  2 -0.4054  4.904380 17.163900 15.708300
315  2 -0.1235  2.130290  5.261000 14.297500
316  2 -0.3890  4.760900  9.732090 14.503600
317  2 -0.2892  6.478560 13.271400 14.283400
318  2 -0.4237  8.629960 16.383900 15.596100
319  2 -0.2756  3.076260 20.170000 14.552600
320  2 -0.4225  3.503390  2.166950 15.564200
321  2 -0.3047  6.863210  4.982090 14.759300
322  2 -0.3235  7.954650  9.113660 14.278100
323  2 -0.4299 10.329800 12.759900 14.859600
324  2 -0.2692 12.329800 16.105000 14.349300
325  2 -0.3771  7.270660 20.295700 14.562300
326  2 -0.3224  9.045430  2.365750 14.817100
327  2 -0.3658 10.654500  5.643390 15.043800
328  2 -0.3301 12.957400  9.226430 15.126000
329  2 -0.3725 15.234400 11.933200 15.114000
330  2 -0.4956  0.447839 16.081600 15.097600
331  2 -0.4177 10.925900 20.320400 14.747300
332  2 -0.4118 12.577200  2.369610 15.575000
333  2 -0.3226 14.889900  5.482240 15.344200
334  2 -0.3487  0.856074  9.010270 15.107900
335  2 -0.3764 14.789200 19.980400 14.459900
336  2 -0.3428  0.460476  2.276300 15.294100
337  2 -0.3820  2.473600 15.261700 12.201600
338  2 -0.3340  5.397620 19.322300 12.324100
339  2 -0.4033  2.905970  8.251270 12.339400
340  2 -0.3851  3.851580 12.367000 11.958600
341  2 -0.4939  6.822770 15.417200 11.429200
342  2 -0.3617  8.943890 18.350700 12.355700
343  2 -0.3063  3.375420  1.225390 12.377200
344  2 -0.3019  4.522220  4.641090 12.304100
345  2 -0.3674  6.723070  7.401510 11.611300
346  2 -0.4597  8.705280 11.267800 11.602200
347  2 -0.3136 10.162300 15.359200 12.107200
348  2 -0.4254 12.844800 18.993700 11.618800
349  2 -0.4208  7.039120  1.187060 12.254200
350  2 -0.2114  9.172980  4.556170 12.599900
351  2 -0.3647 11.149000  8.004000 11.817900
352  2 -0.4642 13.111800 11.407000 12.393300
353  2 -0.5346 14.480400 15.586600 11.235300
354  2 -0.5623  0.452430 19.474100 11.624200
355  2 -0.3527 10.881600  1.000600 12.268700
356  2 -0.2256 12.936200  4.572070 12.184900
357  2 -0.4208 15.206200  8.355810 12.149200
358  2 -0.4249 16.622100 12.085600 12.026300
359  2 -0.4403 14.287600  1.311560 11.897200
360  2 -0.2898 16.365900  4.296920 12.345500

