Generated by pymatgen.io.lammps.data.LammpsData

320  atoms

  2  atom types

0.000000 24.637781  xlo xhi
0.000000 17.058433  ylo yhi
0.000000 27.370788  zlo zhi

Masses

1  208.9804
2   78.9600

Atoms

1    1  0.3287 -2.397020  5.791720 11.158900
2    1  0.7808 -1.707240 15.498200 22.164800
3    1  0.5036  1.794250 11.887400  5.385970
4    1  0.7686  4.777880  5.738830 14.670400
5    1  0.6544  9.254860 11.258200  7.283650
6    1  0.6100 15.909500  1.727550 11.943100
7    1  0.7760  1.267310 13.949400 25.820300
8    1  0.7882  2.556680  7.821130  9.620700
9    1  0.7859  5.797410 15.557700 13.193100
10   1  0.7740 18.879400 14.791000 22.489800
11   1  0.7335  2.738480  9.463130 18.558800
12   1  0.6732  0.500773  2.663800 20.148100
13   1  0.8406 11.932000  2.928790 19.800900
14   1  0.7469 11.013300  7.147720 21.294800
15   1  0.6146 13.933200 12.195500 13.410700
16   1  0.5954 18.252400 16.142800 25.611100
17   1  0.7161  5.167590 17.923100 25.705500
18   1  0.6428  8.734940  7.592110 17.333300
19   1  0.6263 -0.975983  2.070080 25.613500
20   1  0.8341  2.375720  5.307340 22.311100
21   1  0.6375 20.201300  5.984980 15.264100
22   1  0.7675 16.799100  7.682420 11.817800
23   1  0.5230 18.250800  6.110380 26.004100
24   1  0.5318 13.395100 17.556100 24.798500
25   1  0.6329 15.246800  7.287220 17.672200
26   1  0.3911 18.907800  2.355980 25.251100
27   1  0.5032  4.109350 14.735000  9.795650
28   1  0.6531  1.051470  6.405130  0.137331
29   1  0.6075 16.749800 14.567100 11.339300
30   1  0.6513  9.903140 13.022400 13.424300
31   1  0.8355 21.648200  1.665700 18.642800
32   1  0.6955 12.941800 14.544800 19.371500
33   1  0.6698  0.607131 17.302200  2.804370
34   1  0.6632 14.980200  3.815350 22.705900
35   1  0.7340  5.373890  8.410040  6.078520
36   1  0.5139 -0.491952  7.945600 13.032600
37   1  0.8600  8.767840 17.339300 12.299400
38   1  0.7360  5.802120 11.351200 15.509100
39   1  0.7153 10.017000  3.301460 10.489600
40   1  0.5923 11.133500 10.122400 15.879700
41   1  0.7439 -1.929000 15.343400 13.699200
42   1  0.6145  2.891710 16.272200 18.604400
43   1  0.6305 -0.576460  6.439520 16.829400
44   1  0.7058 21.110300  5.297660  2.323470
45   1  0.6705 12.121800  3.809970 14.686800
46   1  0.6398  9.390480  3.883950 26.440000
47   1  0.7167 15.899100  4.862420  9.476270
48   1  0.3152  7.158940 12.307600  0.760940
49   1  0.5940  5.422100 15.672700  1.035150
50   1  0.6199  6.146430  6.480920 18.927700
51   1  0.7521  1.897670  8.338510  3.183460
52   1  0.6625  9.247880  9.599840 11.375100
53   1  0.6624 20.278900 14.401800 15.644100
54   1  0.6186  8.952270 18.250200 24.301500
55   1  0.7082  0.584581 15.450600  9.257120
56   1  0.7734  1.683590 17.656000 12.497700
57   1  0.6797  7.213980 18.337800  2.198020
58   1  0.5727  5.360000  4.585100 27.469300
59   1  0.6692 21.924200  9.425760  5.116020
60   1  0.6925  8.352050  5.871090 23.626100
61   1  0.7127 11.828100  6.095300 17.886800
62   1  0.6476 15.838500  6.833770 20.506300
63   1  0.4200  8.559750 12.472000  3.699690
64   1  0.7845 -0.856202  4.877520  5.905440
65   1  0.6131  3.676510  9.003520 24.329000
66   1  0.7234  5.844880  2.830690  9.272290
67   1  0.7846 21.578900 17.419400  1.011180
68   1  0.5840 16.803800 14.981500 17.779100
69   1  0.6321  5.681500 13.444700 19.340700
70   1  0.5539  6.852810 16.135600 17.559800
71   1  0.5384  4.665290  9.489310 20.857400
72   1  0.7434  5.752780  6.359510 10.374500
73   1  0.7494  7.210180 14.503900 25.248500
74   1  0.6107  7.840960  4.113680 17.206200
75   1  0.6116 -0.782842  9.740910 25.646000
76   1  0.3424  6.298380 12.821700  7.451250
77   1  0.6414 18.694000  9.445830  4.165840
78   1  0.7216  5.015260  9.685830 12.462400
79   1  0.6253 21.729700 15.648700 10.257100
80   1  0.7145 -1.633750  2.756850 13.844400
81   1  0.6967 21.352400  2.054110 22.540000
82   1  0.4676  4.827120 11.518400  9.680000
83   1  0.7406  1.918280 17.439900 23.598200
84   1  0.6254 20.853500 10.143500 13.892600
85   1  0.5374 16.319800  2.458900 26.798200
86   1  0.5816 20.933400  5.820880 18.297500
87   1  0.6545 13.145600 11.002300 19.209400
88   1  0.7409 17.432700  2.189760 20.486900
89   1  0.6341  5.004160  1.624550 18.249600
90   1  0.6826  7.842170  4.413250  4.295690
91   1  0.5522  2.052120  3.079840 26.574000
92   1  0.5537  9.194300  4.986050 13.605600
93   1  0.5992 21.294800  6.222810 24.697600
94   1  0.5008  0.161996  2.938160  8.869650
95   1  0.7052 -1.793820  1.472640  6.251600
96   1  0.3952 19.596300 13.064200 11.865100
97   1  0.3601 -1.170650  8.255550  9.463610
98   1  0.6936  4.776610  1.942450 13.741500
99   1  0.7036  2.184960 18.108800  6.865130
100  1  0.7520 21.317900 12.941900 19.761200
101  1  0.8466 17.145400  9.479220 15.410900
102  1  0.6212  8.055740  2.719370 21.207800
103  1  0.7703 -0.323797 13.060200  3.179290
104  1  0.6339  8.076650  6.709700  1.598320
105  1  0.6995 17.986200 18.468700 14.409900
106  1  0.6234 15.299700 14.737300 14.923300
107  1  0.8787  2.292700 13.820800 13.965200
108  1  0.6418  9.894220 14.768300 16.646500
109  1  0.5103 20.696500  8.056660  8.990280
110  1  0.6079  8.018940 10.865200 17.902500
111  1  0.8198 15.694100  1.702210 16.911600
112  1  0.6112 12.862800  8.663680 13.625400
113  1  0.5580  0.753326  4.668830 12.325100
114  1  0.5735 21.862700  8.374620  1.080970
115  1  0.3338  3.405820 14.476200  6.502810
116  1  0.4498  3.389750 11.349400  2.416180
117  1  0.5858 20.352300  3.065630 11.773800
118  1  0.6499  9.860320  8.616640 25.988300
119  1  0.6079 22.051900 12.357500  8.900950
120  1  0.7716 10.568100 11.233100 22.030700
121  1  0.3460  6.025220 10.031100  2.994550
122  1  0.5596  4.697640 11.494100 24.083700
123  1  0.5395 12.367200  5.647920 11.135900
124  1  0.6269  8.686640 15.679500 20.634200
125  1  0.6600  3.453510  4.770550  5.044870
126  1  0.6518  0.135667 15.114900 18.036500
127  1  0.6231  0.952963 11.490600  9.273800
128  1  0.6577 13.530900 16.928400 21.577900
129  2 -0.4278  1.617580  7.165260 14.412100
130  2 -0.2740 10.250900 12.911000 26.684000
131  2 -0.4040 -1.050480 13.094000 14.733200
132  2 -0.6557 17.343200  5.058910 22.480800
133  2 -0.9341 -1.779850  5.262170 13.963700
134  2 -0.1502 14.473400 12.701800  9.870850
135  2 -0.7965 17.778900 15.496700 13.897900
136  2 -0.3966 11.883100  9.797810 23.468400
137  2 -0.3676 18.662100  7.242680  5.641530
138  2 -0.5961 20.487700  3.444720 20.181600
139  2 -0.0115 13.152900  9.373590  5.406720
140  2 -0.4081 21.749800 13.308500 22.846400
141  2 -0.2667 20.545200  9.374540 18.030800
142  2 -0.5215  8.234410  9.489980 23.861100
143  2 -0.2015 20.071700  4.670880  5.023800
144  2 -0.6052  5.595120 15.884900 20.400700
145  2 -0.6513 20.556300 17.423000 13.086700
146  2 -0.1443 18.907200  9.126980 20.684000
147  2 -0.0648 15.081000  6.751100  4.461620
148  2 -0.6414 -0.615624 10.926300  7.261250
149  2 -0.5617 16.273200 10.800300 13.117300
150  2 -0.6223  4.114070 16.639900 15.722200
151  2 -0.7344  8.254930 10.823200 13.539000
152  2 -0.6816  8.427210  1.597340 18.560800
153  2 -0.7177  0.169949 10.707700  3.454180
154  2 -0.5599 13.648400  4.194810 17.087700
155  2 -0.2565 21.595900 12.408200  4.899210
156  2 -0.7639  5.565450 10.716000 18.264400
157  2  0.0233 12.782900 14.037800  9.373060
158  2 -0.5284 11.709600 17.429200 19.480900
159  2 -0.7144  0.070401 16.360100  6.677770
160  2 -0.6903 -0.776106 17.606900 11.314500
161  2 -0.6998 23.153000 13.517600 11.561800
162  2 -0.5242 21.283500  4.940220  8.644650
163  2 -0.4837 11.108800 11.698200 10.768000
164  2 -0.4457  4.782690  1.735090  5.404440
165  2 -0.7017  2.592970 17.086400  9.608480
166  2 -0.8296 17.692600 17.332400 23.289900
167  2 -0.4134  4.140760  7.359800 26.901100
168  2 -0.3897  9.896060 15.529400 24.464000
169  2 -0.4438 11.388000  1.689030 12.002100
170  2 -0.7156  2.472130 17.498100 26.356700
171  2 -0.7071  0.423941  6.077670  8.378160
172  2 -0.4899  7.033610 12.410100 22.431800
173  2 -0.5810  7.994940 14.931800 11.621900
174  2 -0.2609 11.122200  5.027030  0.778792
175  2 -0.0915 15.002200 15.413800  1.283450
176  2 -0.7381  9.438540  5.189490 19.467500
177  2  0.0397 14.009700 13.502600  3.147910
178  2 -0.4928  2.791530  6.562640 19.627700
179  2 -0.0760 13.540700 13.406800 25.045100
180  2 -0.6450 21.408700 16.667500 23.934900
181  2 -0.5750  1.954710  5.700500  2.668210
182  2 -0.6846  9.798210 12.654200 19.321600
183  2 -0.0114 15.451800 17.902100  4.194730
184  2 -0.2446  2.200680 10.640000 16.125100
185  2  0.0444 14.575300 12.659100 27.010900
186  2 -0.4063 -1.963910  9.643330 15.766700
187  2 -0.5583 20.816100 16.105900 20.341200
188  2 -0.4257  7.171470 15.243500  4.422770
189  2 -0.0849 16.544700 11.665500  1.590700
190  2 -0.4886  3.177930  2.197370 20.929900
191  2 -0.5170 13.675100  3.067860  9.939510
192  2  0.0303 12.286700 18.171400  3.752250
193  2 -0.1032 10.224100 15.190500  8.286170
194  2 -0.3847  3.030460 14.303200 23.572400
195  2 -0.9143  6.899020 10.394200  6.148230
196  2 -0.5753  6.977630  7.426480 13.649400
197  2 -0.7991  8.010030  3.987560  1.717710
198  2 -0.5429  3.739870  2.734210 24.406200
199  2 -0.5257 19.990500 10.376000  7.870210
200  2 -0.4781 14.485300 18.208000 14.410800
201  2 -0.5329  5.396140 17.660100 10.894600
202  2 -0.6594  7.212100  3.405900 23.740900
203  2 -0.5737  5.273550  8.002750 16.878200
204  2 -0.6916  4.730340 13.492500 13.013600
205  2 -0.5683 -0.727429 16.618600  0.184478
206  2 -0.6164 19.047300 12.022700 14.983300
207  2 -0.0988 12.057000 11.950800  1.876550
208  2 -0.5154 21.617500 16.579200 16.669900
209  2 -0.8021  0.607405  3.004540  5.888650
210  2 -0.3087  0.288824 12.223400 23.141700
211  2 -0.3194 -0.699263 12.209200 18.709400
212  2 -0.0696 12.345700  3.878090  6.628640
213  2 -0.4453 14.190800  3.884440 25.636600
214  2 -0.4564 14.227700  8.135460 10.496600
215  2 -0.4680 15.196100 14.826400 22.283900
216  2 -0.3905 -2.227670 16.229400  3.601090
217  2 -0.4078 -1.630610  5.343890 22.171900
218  2 -0.5799 -1.299720  7.269390  4.160500
219  2 -0.6886  5.338880  9.060490  9.848390
220  2 -0.8167 -2.274370  6.290340  0.001209
221  2 -0.7033  5.383850  3.471920 16.441400
222  2 -0.4937  0.740564  2.572090 14.812000
223  2 -0.7081  1.741340 14.079900 10.978200
224  2 -0.1953 12.069100  8.305030  1.482830
225  2 -0.2596  8.696830  1.852350  4.691350
226  2 -0.4585 17.343900  3.931350 18.516800
227  2 -0.6108  1.890800  9.494040 11.482000
228  2  0.0211 19.134300 14.544800  4.795610
229  2 -0.3992 19.007200  8.683980 25.598300
230  2 -0.6084  3.159330  3.123630 11.445300
231  2 -0.3608 11.584000  6.227850 24.368500
232  2 -0.4655 14.248100 14.909200 12.339400
233  2 -0.2923 12.965000 18.223900  0.041202
234  2 -0.5663  8.901250  6.099310 10.459200
235  2 -0.0154 17.230900 11.926200 25.842600
236  2 -0.5582  6.302010  5.424760  7.161030
237  2 -0.0444 14.346200  1.441340  6.351230
238  2 -0.1309 19.128100 13.201300 27.015500
239  2 -0.4777  3.798660 16.123900  3.830630
240  2 -0.7063 -0.949111 17.072000 19.950900
241  2 -0.7926 10.233600  7.190430 15.244000
242  2 -0.7173  7.402550 14.532600 15.463700
243  2 -0.3661 20.594100  1.600490  8.953050
244  2 -0.7861  7.440810 17.214900 -0.240753
245  2 -0.5330  0.674218 16.145100 14.823100
246  2 -0.6486 11.691800  2.965090 22.353200
247  2 -0.4897 20.648000 10.644800  1.891580
248  2 -0.4832 18.296600 13.386600 20.324100
249  2 -0.6718  7.579760  2.849060 11.900200
250  2 -0.4971  4.749850  6.899960 22.605600
251  2 -0.4541  2.621090  7.496080  5.776900
252  2 -0.7526 -0.599132  1.944780 23.033400
253  2 -0.5074  6.561740 16.762300 23.756100
254  2 -0.5564  1.783690  6.156560 24.703000
255  2 -0.4616 18.109200  6.130370  9.486120
256  2  0.0072 12.014600 15.172500  3.061510
257  2 -0.0898 10.796700 15.048200  0.862359
258  2 -0.6138 21.232100  3.070600 -0.258337
259  2 -0.3120 11.226900 12.051400  4.897640
260  2 -0.3499  1.034620  8.579870 22.358500
261  2 -0.5745  2.010530 13.952600  1.960500
262  2 -0.3355 10.883500 15.762200 13.976000
263  2  0.0130 15.466600 11.454000  6.485650
264  2 -0.4333 16.986300  6.631900 15.632400
265  2 -0.5341 18.300400  4.389900 13.676600
266  2 -0.4726 16.312500 10.244100 18.014600
267  2 -0.4572 21.656700 14.614100  7.790660
268  2 -0.1038 17.150100 14.734900  1.335070
269  2 -0.3186  8.429430  1.883350  8.543670
270  2 -0.7572 11.067800  8.667680 18.314400
271  2 -0.0017 14.301500  6.527250  0.879721
272  2 -0.1356 14.707500  7.084390 24.405600
273  2 -0.7041 12.943900  5.838470 20.377600
274  2 -0.6957  4.870990 13.468800 26.482900
275  2 -0.7019  5.553930  7.420880  2.873590
276  2  0.0394 15.895600 10.164600 25.304600
277  2 -0.5117 18.305300  0.938206  0.765476
278  2 -0.0953 14.338800 16.715900  9.027370
279  2 -0.6562 13.998400  5.782970 13.564400
280  2 -0.0110 17.659900 15.669100  5.441910
281  2 -0.1665 22.227000  8.858110 22.932900
282  2 -0.4855  2.170140 14.210100 20.131800
283  2  0.0248 13.735600  4.957830  3.623010
284  2 -0.7300 12.349600 12.860200 16.814700
285  2  0.0480 11.865900 17.354800  7.056640
286  2  0.0497 17.419200  2.199060  5.747350
287  2 -0.0515 11.279200  2.821520  2.848850
288  2 -0.5411 11.447900 14.783400 21.514200
289  2 -0.5764 14.199600 16.350700 17.200400
290  2 -0.6198  2.368960 10.390300 27.213600
291  2 -0.0432  9.475770 15.875200  6.302920
292  2  0.0080 18.457500 10.191200 22.444100
293  2 -0.2598 11.086200  8.206810  8.872330
294  2 -0.5546 18.163000 17.533200 17.173200
295  2 -0.3498 14.607100 10.269300 21.271600
296  2 -0.2511 -0.428897  8.431180 19.007600
297  2 -0.6630  7.616370  6.477660 26.466300
298  2 -0.3843 17.939200  5.097930  1.850060
299  2 -0.0084 13.068000 15.592400  5.575160
300  2 -0.6084  3.545650  6.609120 11.804900
301  2 -0.1293 11.177900  5.299210  6.541570
302  2 -0.7005 13.905600  9.590670 15.692600
303  2 -0.0628 16.486900 13.187000  6.072110
304  2 -0.6002  7.904510  7.995290 20.319300
305  2 -0.5105  4.150340 13.367300 16.392300
306  2 -0.3106 -1.589730 13.033600 26.124100
307  2 -0.6986 19.073600  8.264890 13.425400
308  2 -0.6983  2.963540 10.395100  7.710460
309  2 -0.6593 14.613800  2.049110 20.180400
310  2 -0.0161 13.399200  8.216680  7.005030
311  2 -0.0717 14.979700 10.817300  3.438610
312  2  0.0161 14.046800  9.556130 27.309900
313  2 -0.4089  2.127890  3.390440 17.849100
314  2 -0.1789 20.155600  2.001830  3.434320
315  2 -0.5736  8.708050  2.214220 14.787800
316  2 -0.4425 -0.658690  3.292800  2.240220
317  2 -0.5441 20.767300  3.400860 16.700500
318  2  0.0342 17.001900  3.756630  4.280130
319  2 -0.2389 17.864600 11.159700  9.210680
320  2 -0.3556 17.386900  2.028630  9.313770

