Generated by pymatgen.io.lammps.data.LammpsData

360  atoms

  2  atom types

0.000000 16.677463  xlo xhi
0.000000 21.699897  ylo yhi
0.000000 28.493178  zlo zhi

Masses

1  208.9804
2   78.9600

Atoms

1    1  0.7853  0.901079 14.211200 21.444800
2    1  0.6087  5.032740 17.174400 20.561300
3    1  0.7379  0.315912  7.529410 22.412900
4    1  0.7130  2.575790 10.613300 20.889900
5    1  0.7666  5.087230 12.857400 23.202700
6    1  0.8617  9.379020 19.647000 18.333700
7    1  0.7504  5.387530  0.053928 20.127500
8    1  0.8048  2.857000  2.094310 21.811000
9    1  0.8724  4.841280  5.406950 20.497600
10   1  0.8147  7.519300  8.056330 19.633400
11   1  0.7580  7.974270 17.486500 21.124100
12   1  0.8543 14.992000 16.496100 23.605100
13   1  0.8601  3.712210 19.067300 23.644900
14   1  0.7092  7.970600  2.452660 22.983000
15   1  0.6539 10.233100  4.747830 21.294700
16   1  0.7760 11.718300  9.909390 19.600400
17   1  0.8102 12.268700 14.147400 20.838100
18   1  0.8563  1.172690 18.949700 20.901000
19   1  0.8290  8.350740 20.913000 23.586300
20   1  0.7992 13.836800  2.956620 20.343600
21   1  0.8148 13.606000  6.699520 24.669500
22   1  0.9414 14.286800 10.413800 22.599600
23   1  0.8779 13.529000 19.615200 22.687200
24   1  0.8878 15.734200  3.078800 24.760600
25   1  0.6848 15.979800 12.398500  0.706521
26   1  0.8395  2.400720 18.423900 28.015000
27   1  0.7998  2.047560  7.557380 27.039600
28   1  0.8537 16.652600 10.940400 25.138200
29   1  0.7225  2.645820 15.185900 24.929500
30   1  0.8725  6.396280 16.083800 25.639000
31   1  0.7156 15.160500  0.250913 27.246300
32   1  0.7758  4.453810  5.331900 24.429500
33   1  0.6514  5.007600  8.468870 22.622600
34   1  0.9232  9.282640 11.473100 25.985800
35   1  0.8321 10.048600 15.119300 24.594900
36   1  0.7784 11.067700 18.829600 26.974700
37   1  0.8237  6.363770  0.612387 27.450500
38   1  0.8113  9.678900  4.583780 25.797700
39   1  0.8158  6.070980  8.415000 26.674600
40   1  0.8814  9.467640  8.229140 23.228400
41   1  0.7018 14.160100 15.052600 27.564100
42   1  0.7362 15.935800 18.706700 27.663400
43   1  0.8556  7.506420 18.886100 28.024700
44   1  0.7847 11.816500  1.589790 25.148300
45   1  0.7473 12.324300  5.035600 28.267200
46   1  0.7661 12.180700 11.338000  0.178226
47   1  0.7948 13.346400  2.051000  2.992350
48   1  0.8344 15.404200  5.444390  0.180822
49   1  0.6236  2.299310 15.798600  4.878280
50   1  0.6237  3.148760 18.852600  3.190910
51   1  0.7339 16.660200  9.245320  2.698550
52   1  0.7135  2.555420 11.628500 27.073800
53   1  0.7165  2.943100 15.500800  1.512460
54   1  0.7810  6.172180 16.421800  2.780760
55   1  0.8667  1.910150  0.870227 28.334200
56   1  0.7581  3.704610  4.345620  4.362350
57   1  0.7486  5.050220  7.824540  2.082070
58   1  0.7564  6.091840 11.103000  1.096130
59   1  0.8014 12.130400 15.778500  1.863040
60   1  0.8378 13.098700 20.551800  2.172470
61   1  0.7918  5.490160  0.452250  2.983670
62   1  0.8449  8.160680  3.396960  0.867734
63   1  0.7903 10.432200  7.980420  1.369610
64   1  0.8225  9.225370 13.789600  1.085260
65   1  0.8469 15.890900 17.301000  2.513270
66   1  0.8070 15.296100 20.636400  5.136380
67   1  0.7816  8.285740  0.174636  5.456070
68   1  0.7162 12.003900  5.396300  3.492480
69   1  0.6759  8.733460 10.228300  3.585160
70   1  0.7779  0.936557 12.023400  4.716880
71   1  0.7727  0.172654  3.082130  3.100960
72   1  0.5881 15.958100  5.628220  3.418850
73   1  0.7511  0.318573 16.893800 10.985300
74   1  0.8309  5.956160 19.526300  8.470410
75   1  0.7634  1.467940 10.099100  7.473110
76   1  0.7687  1.193220 13.351300  9.514040
77   1  0.6940  6.871510 16.358900 12.483400
78   1  0.8466  7.992340 16.292600  6.575270
79   1  0.7411  1.847740 18.795900  8.055110
80   1  0.5560  2.957100  7.961630  4.902860
81   1  0.6337  6.372950  9.651480  6.189290
82   1  0.7864  4.611160 11.597100 10.389200
83   1  0.7605 12.601800 21.601000 12.885600
84   1  0.7781 10.859600 20.341600  7.160070
85   1  0.6422  5.812920  4.321230  7.279600
86   1  0.7208  7.739340  4.534810  4.403710
87   1  0.7579  9.895490  7.576980  5.367490
88   1  0.8202  9.015970 10.497300  8.690080
89   1  0.7904 11.478200 15.459500  5.300590
90   1  0.8204 13.350600 18.778600  9.303360
91   1  0.7973 10.772500  0.713165 10.332100
92   1  0.7856 12.169000  2.630980  6.722780
93   1  0.8287 13.539100 11.067200  6.362260
94   1  0.6905 14.937700 16.420500  6.380840
95   1  0.8981 15.625600  0.813381 10.093000
96   1  0.6524 14.872700  5.113580  6.139260
97   1  0.7898 13.516700 13.545800  8.795610
98   1  0.8010  3.348840 20.514200 11.598600
99   1  0.6757  2.003840  5.571930 14.394500
100  1  0.8123 15.769400 10.761600 13.965800
101  1  0.7502  1.895240 13.853500 13.149500
102  1  0.8451  7.517270  0.711948 12.560300
103  1  0.8598  1.488500  1.612450 14.178600
104  1  0.7317  1.484080  5.145630  8.054820
105  1  0.7910  2.311720  8.044640 11.389400
106  1  0.8388  6.184370 10.980100 14.102400
107  1  0.8020  6.239430 14.824100 15.447500
108  1  0.6944 10.841100 17.430500 13.834800
109  1  0.8636  4.736630  4.037300 11.470600
110  1  0.7990  6.419190  7.852250  9.552030
111  1  0.8468  8.488220  8.770250 12.584300
112  1  0.7696 10.044000 12.056600 13.221300
113  1  0.6978 10.438600 16.967100 10.434700
114  1  0.8830 16.030700 18.993700 14.099500
115  1  0.8243 14.204100  2.066920 15.525000
116  1  0.7735  9.354470  3.954890  8.777520
117  1  0.7458 12.149800  6.112150  8.037070
118  1  0.8924 12.344500  9.019800 11.805200
119  1  0.9098 11.071800  5.094280 12.006200
120  1  0.9069 15.684200  4.505980 10.827700
121  1  0.7432 15.625500 14.572000 18.464100
122  1  0.7576  3.465130 18.569600 16.356700
123  1  0.7338  0.374545  7.412930 18.770600
124  1  0.7084  1.595930 12.563400 16.862300
125  1  0.6559  2.542070 15.510600 18.399700
126  1  0.8184  6.816910 19.197500 14.804000
127  1  0.8624 15.165700 20.193500 17.317400
128  1  0.8123  1.946540  3.703610 18.483300
129  1  0.7159  3.271620  9.546960 16.776000
130  1  0.7614  5.316800 11.781700 18.754300
131  1  0.9002  8.696730 12.385900 19.675800
132  1  0.6498 10.052100 20.852900 15.103800
133  1  0.7478  2.786420 21.366300 18.154900
134  1  0.8817  5.056180  5.159470 15.894900
135  1  0.7291  9.971840  6.273700 18.058600
136  1  0.7670  9.705670  9.470010 16.836700
137  1  0.8817 10.650800 15.319200 16.773600
138  1  0.8443 13.690500 14.152200 14.102700
139  1  0.8260  7.491090  2.866200 19.067400
140  1  0.7797 10.778200  2.805490 17.848600
141  1  0.6711 13.992300  6.178950 20.699200
142  1  0.7508 14.208600 10.149900 17.047200
143  1  0.7682 12.960100 17.750900 18.786300
144  1  0.6957 14.139900  5.264770 17.723300
145  2 -0.7404  0.531195 16.573800  0.069070
146  2 -0.6845  0.766350 19.269300  1.580220
147  2 -0.5905 14.029600  7.335440  1.198080
148  2 -0.6351  0.276877  9.847080 27.880200
149  2 -0.5025  4.398780 17.698700 26.116200
150  2 -0.6248  4.721860 17.774000  0.741737
151  2 -0.5673 15.822900 21.564600  2.456000
152  2 -0.1433  3.170090  1.620350 25.368400
153  2 -0.6932  4.145590  9.674850  0.025422
154  2 -0.5352  3.579880 14.976500 27.465900
155  2 -0.4481  6.392000 13.739800  1.217370
156  2 -0.3172 10.067000 18.907200  1.168780
157  2 -0.3316  3.355560  2.732870  6.814290
158  2 -0.4191  4.850210  6.336970 27.457700
159  2 -0.3651  8.848150  8.706350 26.395400
160  2 -0.6451  9.386090 11.180400  0.131618
161  2 -0.5446 11.091600 16.346300 27.508400
162  2 -0.6595 13.866800 17.881500  1.087600
163  2 -0.5200  7.859830  0.326506  1.292120
164  2 -0.4285  8.380110  5.516780 27.503400
165  2 -0.3400 12.639500  8.390250 27.239700
166  2 -0.5622 14.574900 12.620300 26.644900
167  2 -0.5992 10.664000  2.847890 27.634600
168  2 -0.9281 13.697200  4.210730  1.911300
169  2 -0.2376  0.223037 20.112200 25.326300
170  2 -0.2288  0.951147  0.871103 24.414800
171  2 -0.5152 14.676000  9.338070 24.738100
172  2 -0.5378 16.366800 14.352000 24.410100
173  2 -0.3418  2.252560 20.490300 26.168400
174  2 -0.4521  7.727310 16.458500 27.972300
175  2 -0.3612  4.867470  2.460490  0.365593
176  2 -0.6399  1.691240  8.535510 24.555800
177  2 -0.5520  4.553880 11.279900 25.420000
178  2 -0.4400  7.336740 13.486000 26.278100
179  2 -0.5287  8.606450 17.748300 24.994500
180  2 -0.6540 12.964300 20.917400 27.987400
181  2 -0.4032  6.337320  3.435270 25.231900
182  2 -0.5770 10.833600  6.738320 25.029300
183  2 -0.4556  9.708650 14.668500 22.148300
184  2 -0.5810 10.577000 13.318300 27.084400
185  2 -0.6339 13.931100 17.344800 25.745800
186  2 -0.5571 15.937300  2.425510  0.196972
187  2 -0.4283  6.083690 19.876100 25.969100
188  2 -0.6243  8.615620  0.710264 25.868300
189  2 -0.5439 15.941300  6.364620 26.345000
190  2 -0.2617 11.668300 11.060100 24.410800
191  2 -0.6619 13.800000  3.292380 26.429900
192  2 -0.2652  1.575940  2.971730 26.905200
193  2 -0.6673 15.679600 16.273400 20.724000
194  2 -0.7885  3.507780 19.745900 20.758700
195  2 -0.6015 16.636800 10.675700 22.198000
196  2 -0.6105  2.331400 12.361800 23.710500
197  2 -0.4227  1.289370 17.751300 24.341600
198  2 -0.5072  6.680000 19.536400 18.784100
199  2 -0.1064 15.790500  1.001930 22.002900
200  2 -0.4357  1.442430  4.589440 23.143700
201  2 -0.6472  2.806760  6.793690 21.849500
202  2 -0.7042  5.114230  8.098540 20.020500
203  2 -0.5897  6.659240 15.146400 22.947400
204  2 -0.5094 10.946300 20.276500 23.277700
205  2 -0.4302  5.136630  0.217603 23.034800
206  2 -0.6153  5.133070  3.414930 22.308600
207  2 -0.5248  7.432160  6.234300 24.160900
208  2 -0.5296  7.243950  9.946600 24.084600
209  2 -0.3894 13.320000 13.772200 23.536600
210  2 -0.4303 16.030900 19.246300 23.008100
211  2 -0.5666  7.977750  0.660944 20.677500
212  2 -0.6535 11.253900  3.066810 23.056800
213  2 -0.5651 12.491700  8.453350 22.213600
214  2 -0.5023 10.607300 11.644700 21.407800
215  2 -0.4190 14.278100  0.337172 24.072500
216  2 -0.6531 14.386800  4.318950 22.863400
217  2 -0.5984 16.165800 13.856500 11.816600
218  2 -0.3052  8.793100 14.612600  9.219380
219  2 -0.6271  3.733810  9.041800  9.152770
220  2 -0.4926  0.683048 10.846800  9.980970
221  2 -0.3886  4.109940 14.799100 11.291600
222  2 -0.5340  8.151930 18.144600  8.938800
223  2 -0.6024 15.984500 19.584600 10.167700
224  2 -0.3065  4.859220  2.157400  9.577140
225  2 -0.5997  4.260910  5.934950  9.286180
226  2 -0.6859  6.167370  9.525860 11.761100
227  2 -0.7729  7.568900  7.255290  7.396120
228  2 -0.6267 12.146000 18.874300 12.000200
229  2 -0.4523  7.625580  0.540849  9.597690
230  2 -0.7298 10.099900  1.671820  7.797040
231  2 -0.4475 13.525100  6.211820 11.319800
232  2 -0.7655  9.949120 10.006400 11.108200
233  2 -0.5249 11.526700 13.563900  6.948520
234  2 -0.6969 14.388800 16.207300  9.022620
235  2 -0.5864  9.431650 20.144600 11.240900
236  2 -0.6614 11.933100  3.516210  9.405870
237  2 -0.4067 16.402000  7.315880  9.220560
238  2 -0.3595 14.222000 10.809000  9.561320
239  2 -0.4295  2.136930  1.324040 11.201800
240  2 -0.2901  3.448620 21.170700  8.531720
241  2 -0.5445  2.015660 15.845400  8.051680
242  2 -0.5064  5.343560 17.694200  5.813230
243  2 -0.7498  0.396122  8.834300  5.026310
244  2 -0.4443  2.851890 12.571000  7.700710
245  2 -0.1016  5.082360 14.675000  6.696000
246  2 -0.4336  9.920020 11.108500  6.051740
247  2 -0.6198 13.195800  0.192139 10.227100
248  2 -0.8184  1.256360  4.848150  4.808570
249  2 -0.6896  7.802940  7.768830  3.663670
250  2 -0.4085  6.723990 11.795500  7.828960
251  2 -0.3552  9.044910 14.645300  4.112890
252  2 -0.6330 11.409500 17.528200  7.338850
253  2 -0.2747  0.481435  0.002003  6.979920
254  2 -0.4088  4.174200 20.600400  5.114960
255  2 -0.4634  7.148600  4.789670 10.386000
256  2 -0.7602 10.382100  4.833150  5.829760
257  2 -0.5627 14.235000 15.186700  3.269880
258  2 -0.5914 13.361100 20.907000  7.347100
259  2 -0.6076 13.501300 20.814400 15.439700
260  2 -0.7040  6.524340  2.076370  5.131560
261  2 -0.6608 13.441200  7.229950  5.812150
262  2 -0.4936 11.052300  8.619840  8.023070
263  2 -0.4884 15.777100  0.114054 12.901700
264  2 -0.5765 15.777500  3.437660  8.311050
265  2 -0.6643  0.862147 14.268100  2.939630
266  2 -0.0164  4.667670 15.432100  8.712950
267  2 -0.5701  2.205840  6.819270  2.357490
268  2 -0.6268  3.820010 10.500600  5.226070
269  2 -0.4389  3.416650 12.421500  1.977270
270  2 -0.3153  5.856280 14.116000  4.206190
271  2 -0.5505  4.219160 20.779400  0.707116
272  2 -0.6148  5.422690  5.158180  2.767230
273  2 -0.5711  9.427080  5.851820  2.568840
274  2 -0.4724  7.724750  8.300140  0.834369
275  2 -0.3477  8.853160 16.078100  2.652500
276  2 -0.5132 13.265400 18.405600  4.230870
277  2 -0.3277  7.423190 19.197100  3.395090
278  2 -0.4419  2.242370  1.598490  2.369520
279  2 -0.4547 10.056200  2.603020  2.877390
280  2 -0.5577 11.574000 13.151400  2.542800
281  2 -0.6346 15.518300 12.946800  6.815150
282  2 -0.7442  0.047428 18.143500  5.030300
283  2 -0.4363  8.863520 18.923100  5.652500
284  2 -0.8447 14.169600  2.763570  5.157030
285  2 -0.5565 11.292100  9.613070  3.261430
286  2 -0.5568 15.263300 11.617200  3.193420
287  2 -0.4405 11.217400 21.490200  4.049750
288  2 -0.2900  1.348100  4.575630  0.346280
289  2 -0.7505  2.262540 16.340500 21.163300
290  2 -0.5213  5.832840 17.217800 17.328200
291  2 -0.7249  1.231070 10.551400 18.541900
292  2 -0.7866  2.967610 13.390200 19.965000
293  2 -0.6874  6.592210 11.923600 20.908900
294  2 -0.3250  5.813480  0.572059 17.612600
295  2 -0.5376  1.105800  1.495440 19.841800
296  2 -0.6340  2.916980  6.695420 17.300400
297  2 -0.4549  6.755440  6.322140 17.723200
298  2 -0.6165  7.539150 10.209500 17.904600
299  2 -0.5708  6.562590 19.050600 22.978100
300  2 -0.4953 11.928200 16.874700 21.757300
301  2 -0.6244  4.950010  3.658820 18.916200
302  2 -0.7522  7.459180  4.890930 20.787700
303  2 -0.8169  9.843000  8.173310 20.602700
304  2 -0.5059 10.479400 12.262000 17.913300
305  2 -0.5037 10.111300 17.243500 19.228300
306  2 -0.6767  0.937386 19.191700 18.094400
307  2 -0.3113 11.117100  1.254770 20.525000
308  2 -0.7424 16.392200  5.018080 19.739800
309  2 -0.6706 14.668900  8.532750 19.808400
310  2 -0.5399 14.415600 11.956000 19.614500
311  2 -0.3268 14.918700 20.568300 20.247600
312  2 -0.5722 13.603900  1.570160 17.898200
313  2 -0.4126  0.089810 15.985200 16.517600
314  2 -0.4520  4.644970 16.983200 13.788900
315  2 -0.5562  0.563913  3.547490 16.122500
316  2 -0.6694  4.551860 12.070900 15.984800
317  2 -0.5547  3.118220 14.643200 15.506200
318  2 -0.4167  7.820740 14.663500 18.142500
319  2 -0.4707  0.003855  0.546294 16.656700
320  2 -0.4484  7.003660  0.081799 14.764200
321  2 -0.3740  5.574040  8.485960 15.398100
322  2 -0.3442  8.645230  7.577080 15.329400
323  2 -0.5691  8.404410 11.617600 15.205300
324  2 -0.5549 11.802800 18.485400 16.319700
325  2 -0.7334  8.914750 17.905800 15.523700
326  2 -0.1813  7.301980  3.438830 15.532000
327  2 -0.9943 11.891200  4.907900 19.008400
328  2 -0.4613 11.921900 13.035000 15.723400
329  2 -0.6367 13.018500 14.950500 18.097300
330  2 -0.3963 14.817400 17.505200 15.729300
331  2 -0.4827  9.006990  0.828250 17.809300
332  2 -0.3291 10.028300  4.828750 15.883500
333  2 -0.2350 14.757700  6.032340 14.631800
334  2 -0.7032 15.882300 12.761000 15.583200
335  2 -0.3784  4.241910 20.725400 15.054600
336  2 -0.3628 11.533200 19.911600 20.064500
337  2 -0.5749  6.333890 19.750200 12.294800
338  2 -0.4673  4.227510  2.780410 13.937900
339  2 -0.5105 16.512800  8.316610 15.689200
340  2 -0.5980  3.026220 10.873900 13.084800
341  2 -0.5019  3.630270 18.061800  9.750590
342  2 -0.4748 11.266900  1.856260 14.826300
343  2 -0.4038  3.451510  2.151330 16.964500
344  2 -0.5748  1.434370  4.946310 11.160800
345  2 -0.4773  4.823190  6.385370 13.016200
346  2 -0.4763  7.692280 12.900700 11.714600
347  2 -0.5732  8.766460 14.858300 14.699900
348  2 -0.4307  9.674090  2.339290 12.810100
349  2 -0.2079  8.464720  5.408340 12.735600
350  2 -0.5191  9.920880  6.746200 10.034700
351  2 -0.4265 11.166100  7.464390 13.608900
352  2 -0.5093 11.869100 14.574600 11.861600
353  2 -0.3974 14.659200 17.084400 12.583900
354  2 -0.3497  1.867670 17.076400 13.637500
355  2 -0.4038 13.394600  2.821920 12.188400
356  2 -0.3049 15.984600  8.739800 12.196700
357  2 -0.6373 12.354700  8.151820 17.145200
358  2 -0.5856 13.168200 10.982400 13.343900
359  2 -0.5089  1.642640 20.108600 13.961100
360  2 -0.4741 16.452600  3.378780 13.089900

