Generated by pymatgen.io.lammps.data.LammpsData

320  atoms

  2  atom types

0.000000 16.864293  xlo xhi
0.000000 23.165087  ylo yhi
0.000000 24.472453  zlo zhi

Masses

1  208.9804
2   78.9600

Atoms

1    1  0.8630  0.882280 10.894400 10.276700
2    1  0.8690  0.999460 11.209200 22.572100
3    1  0.8397  0.729842 22.673600 10.480800
4    1  0.8148  0.811239 22.732300 22.732900
5    1  0.8494  4.806330 11.328100 10.349600
6    1  0.8434  5.103920 11.062400 22.365700
7    1  0.8072  4.880250 22.740700 10.612500
8    1  0.7990  5.178310 22.751400 22.745800
9    1  0.8215  9.103530 11.211100 10.484400
10   1  0.8497  9.277500 11.149400 22.635800
11   1  0.8236  9.124660 22.757100 10.498400
12   1  0.7980  9.243810 23.079300 22.604100
13   1  0.8326 13.543200 11.153900 10.403300
14   1  0.8415 13.461600 11.123300 22.554100
15   1  0.7873 13.355800 22.799100 10.525900
16   1  0.8477 13.363700 22.994700 22.874800
17   1  0.8296  2.854050  0.508411  1.896350
18   1  0.8065  2.571510  0.348217 14.013000
19   1  0.8362  3.153500 11.847000  1.587870
20   1  0.8624  2.559350 11.646400 14.027900
21   1  0.8165  6.929560  0.447812  1.593040
22   1  0.8050  7.000620  0.180025 14.037200
23   1  0.8343  7.097350 12.047000  1.598090
24   1  0.8041  7.176960 11.839100 13.880800
25   1  0.8153 11.379100  0.328221  1.736760
26   1  0.8620 11.255900  0.165512 13.971100
27   1  0.8340 11.387700 12.013000  1.630850
28   1  0.8446 11.426400 11.808600 13.788700
29   1  0.7923 15.776300  0.466887  1.621690
30   1  0.8073 15.534400  0.325371 13.901600
31   1  0.8550 15.592600 11.984400  1.555140
32   1  0.8252 15.306300 11.772900 13.724500
33   1  0.8222  2.891460  5.336210  7.630580
34   1  0.8417  2.896200  5.474890 19.837100
35   1  0.8504  2.678740 17.073300  7.722480
36   1  0.8259  2.864980 17.071700 19.791500
37   1  0.8210  7.025190  5.421460  7.707360
38   1  0.8248  7.152810  5.485260 20.044300
39   1  0.8280  7.098480 16.658600  7.733790
40   1  0.8195  7.223920 17.036200 19.969900
41   1  0.8111 11.498500  5.375270  7.637290
42   1  0.8650 11.313000  5.691140 20.103700
43   1  0.8175 11.351700 16.804400  7.799990
44   1  0.8452 11.434200 17.061400 20.024900
45   1  0.8209 15.718300  5.400370  7.713180
46   1  0.8421 15.653100  5.468990 20.008600
47   1  0.8306 15.675400 16.791300  7.705200
48   1  0.7972 15.551600 16.809800 20.207300
49   1  0.8453  0.821862  5.971920  4.342180
50   1  0.8431  0.599328  5.942140 16.474400
51   1  0.8322  0.915064 17.900400  4.350560
52   1  0.8151  0.685729 17.814200 16.513200
53   1  0.8330  4.942510  6.020150  4.187990
54   1  0.8274  5.094610  6.211250 16.592700
55   1  0.8516  4.942500 17.682700  4.438570
56   1  0.8060  5.188300 17.641800 16.431400
57   1  0.7904  8.979270  6.163760  4.405450
58   1  0.8287  9.460040  6.223930 16.340600
59   1  0.8213  9.224340 17.482300  4.417280
60   1  0.8369  9.440060 17.739300 16.673000
61   1  0.8283 13.584000  6.257630  4.149340
62   1  0.8650 13.480000  6.041000 16.677000
63   1  0.8499 13.501700 17.619700  4.212950
64   1  0.8396 13.425400 17.635200 16.741900
65   1  0.8310  0.856548  2.142250  5.935970
66   1  0.8246  0.823747  1.626550 18.184500
67   1  0.8484  0.963203 13.623800  5.919780
68   1  0.8496  0.422520 13.272100 17.897900
69   1  0.8604  4.877210  2.165270  5.808500
70   1  0.8139  4.962520  1.986260 17.989100
71   1  0.8426  4.987590 13.520300  5.839520
72   1  0.8131  5.271220 13.601200 17.980600
73   1  0.8578  9.053460  1.881600  6.022740
74   1  0.8438  9.261980  2.023930 17.849000
75   1  0.8468  9.079090 13.490000  5.843840
76   1  0.8531  9.345300 13.676000 18.150600
77   1  0.8495 13.424800  1.811450  5.919750
78   1  0.8323 13.488100  2.015360 18.285400
79   1  0.8375 13.973700 13.291200  5.754840
80   1  0.8379 13.421400 13.257700 18.035400
81   1  0.8630  2.927950  9.602350  6.271430
82   1  0.8688  2.747390  9.547310 18.601900
83   1  0.8400  2.988930 21.096200  6.035620
84   1  0.8307  3.005370 21.053100 18.392300
85   1  0.8610  6.882790  9.578290  5.879370
86   1  0.8358  7.341980  9.465520 18.309700
87   1  0.8367  6.890380 21.409200  6.424470
88   1  0.8362  7.346790 21.159600 18.580400
89   1  0.8378 11.582200  9.488650  6.341020
90   1  0.8337 11.406100  9.370620 18.500900
91   1  0.8266 11.224500 21.250100  6.272730
92   1  0.8115 11.584800 21.208600 18.844600
93   1  0.8677 15.731400  9.422230  6.157900
94   1  0.8497 15.531600  9.537430 18.547800
95   1  0.8354 15.554500 21.397700  6.072660
96   1  0.8212 15.555200 21.089800 18.311800
97   1  0.8314  2.621190  7.854010 12.342400
98   1  0.8195  3.084100  8.020280  0.082628
99   1  0.8024  3.055990 18.963700 12.378400
100  1  0.8296  2.828920 19.205600  0.052542
101  1  0.8373  6.912900  7.637430 12.412400
102  1  0.8329  7.100330  7.882140 -0.043370
103  1  0.8221  7.191590 19.080100 12.492800
104  1  0.8295  7.216540 19.357100  0.279484
105  1  0.8519 11.208300  7.765610 12.284700
106  1  0.8328 11.243000  7.656230  0.065285
107  1  0.8363 11.263900 19.009300 12.221900
108  1  0.8468 11.148400 19.528700  0.578205
109  1  0.8506 15.385500  7.572100 12.445500
110  1  0.8431 15.790700  7.855310  0.344339
111  1  0.8373 15.426100 19.169100 11.989000
112  1  0.8461 15.534700 19.269200  0.275745
113  1  0.8723  0.791260  3.981340 24.482000
114  1  0.8712  0.661130  3.594100 12.186700
115  1  0.7807  0.899687 15.447400 24.140700
116  1  0.8398  0.638313 15.747800 11.909400
117  1  0.8523  5.342670  3.933110 24.019600
118  1  0.8506  4.950900  3.739610 12.299200
119  1  0.8453  5.295830 15.383200 24.294000
120  1  0.8485  5.083750 15.490900 12.148200
121  1  0.8133  9.303390  3.701830 24.283500
122  1  0.8413  9.185240  3.727210 12.018400
123  1  0.8365  9.200310 15.435200 24.132300
124  1  0.8111  9.083860 15.099100 11.957000
125  1  0.8426 13.685900  4.012800 24.258500
126  1  0.8448 13.516000  3.683380 11.645300
127  1  0.8012 13.704400 15.505500 24.125400
128  1  0.7965 13.528700 15.363500 12.038300
129  2 -0.5104  1.050550  3.641660  8.600710
130  2 -0.4725  1.061570  3.555680 20.717600
131  2 -0.5358  0.875070 15.025700  8.482910
132  2 -0.5125  0.800378 15.066200 20.577700
133  2 -0.4810  5.018750  3.526510  8.557340
134  2 -0.4953  5.019950  3.451180 20.559000
135  2 -0.5253  4.873220 15.114500  8.305420
136  2 -0.4967  4.834020 15.125300 20.495500
137  2 -0.5203  9.160790  3.581370  8.312510
138  2 -0.4932  9.250170  3.749600 20.566500
139  2 -0.5542  9.164500 14.937200  8.394240
140  2 -0.5191  9.345370 15.149600 20.762600
141  2 -0.5515 13.528500  3.567560  8.316120
142  2 -0.5345 13.424000  3.901020 20.552000
143  2 -0.5019 13.768500 14.880500  8.364730
144  2 -0.5457 13.404900 15.116600 20.764200
145  2 -0.5127  2.770780  7.814830  3.725080
146  2 -0.4959  2.688980  7.869000 15.859600
147  2 -0.5568  3.083890 19.534900  3.625070
148  2 -0.5256  3.064210 19.470200 15.647800
149  2 -0.5481  6.777990  8.033990  3.621520
150  2 -0.5506  7.116010  8.089840 15.785100
151  2 -0.4955  7.071830 19.529300  3.845640
152  2 -0.5286  7.313920 19.494400 15.940000
153  2 -0.5036 11.269300  8.042970  3.658270
154  2 -0.5387 11.601100  7.822720 15.840000
155  2 -0.5509 11.389700 19.273200  3.730190
156  2 -0.4855 11.456600 19.549000 16.030300
157  2 -0.5412 16.024000  7.944680  3.637720
158  2 -0.5247 15.382800  7.835900 15.887100
159  2 -0.5167 15.538500 19.807500  3.559890
160  2 -0.5174 15.409500 19.512100 15.906400
161  2 -0.5345  2.947820  9.182720  9.602140
162  2 -0.5499  2.874480  9.226560 21.833700
163  2 -0.4752  3.065780 20.807900  9.654570
164  2 -0.5059  3.026190 20.818900 22.073200
165  2 -0.4918  6.874580  9.497730  9.863630
166  2 -0.5641  7.165500  9.351740 21.950600
167  2 -0.4890  7.098260 20.796200  9.775040
168  2 -0.5164  7.392230 20.891700 21.998300
169  2 -0.5133 11.436500  9.302020  9.768070
170  2 -0.5449 11.270400  9.232320 22.090400
171  2 -0.5410 11.102700 21.021200  9.902220
172  2 -0.5169 11.302900 21.190500 22.247300
173  2 -0.5106 15.494300  9.179710  9.751590
174  2 -0.5045 15.716800  9.401260 22.150200
175  2 -0.5211 15.583500 21.010700  9.566360
176  2 -0.4773 15.489500 20.934400 22.229900
177  2 -0.5549  0.890722  2.461300  2.380590
178  2 -0.5559  0.559758  2.212280 14.817400
179  2 -0.4986  0.740031 13.744800  2.298810
180  2 -0.4769  0.629348 13.567100 14.669600
181  2 -0.5070  4.950770  2.310710  2.378280
182  2 -0.5594  4.842700  2.110700 14.729600
183  2 -0.5445  5.041790 13.747000  2.289960
184  2 -0.4909  4.773590 13.574300 14.577800
185  2 -0.5376  9.272800  2.146060  2.193070
186  2 -0.5229  9.141970  2.104240 14.774600
187  2 -0.5038  9.250580 13.857900  2.354670
188  2 -0.5226  9.336800 13.607300 14.593400
189  2 -0.4619 13.540400  2.441440  2.426640
190  2 -0.4986 13.237900  2.031070 14.431600
191  2 -0.5105 13.659300 13.798700  2.414590
192  2 -0.5235 13.477300 13.688300 14.714900
193  2 -0.4889  0.909845 10.892900  4.710740
194  2 -0.5406  0.548313 10.618500 16.898000
195  2 -0.5433  0.988687 22.624100  4.635820
196  2 -0.5410  0.802303 22.309000 16.633500
197  2 -0.5385  4.619000 10.887900  4.569300
198  2 -0.4838  4.871070 10.719000 16.987300
199  2 -0.5398  4.885300 22.652800  4.741230
200  2 -0.5227  5.168550 22.387900 17.038300
201  2 -0.4920  9.070380 11.012000  4.517340
202  2 -0.4895  9.534130 10.725400 16.771600
203  2 -0.5121  9.055010 22.462800  4.747380
204  2 -0.4818  9.471270 22.379600 16.812500
205  2 -0.5138 13.726600 10.528100  4.507870
206  2 -0.5125 13.522400 10.748400 16.788000
207  2 -0.5639 13.206400 22.537000  4.688300
208  2 -0.5058 13.295600 22.426700 16.908400
209  2 -0.4573  2.838750  0.768426  7.637110
210  2 -0.5134  2.835470  0.592524 19.715800
211  2 -0.5214  2.828910 12.206600  7.496570
212  2 -0.4627  2.628390 12.210800 19.609100
213  2 -0.5248  6.942780  0.770760  7.523830
214  2 -0.4904  7.358680  0.768836 19.773600
215  2 -0.5279  6.966280 12.239800  7.357950
216  2 -0.5121  7.298190 12.236400 19.706900
217  2 -0.5366 11.099700  0.611380  7.557480
218  2 -0.4997 11.382100  0.959527 19.870300
219  2 -0.4752 11.474000 12.217500  7.356760
220  2 -0.5226 11.380400 12.129900 19.621700
221  2 -0.5129 15.605100  0.888921  7.486330
222  2 -0.5378 15.691000  0.503021 19.852700
223  2 -0.5098 15.721700 12.048400  7.514350
224  2 -0.5547 15.566600 11.988900 19.763300
225  2 -0.4718  2.999960  5.271720  1.270140
226  2 -0.4992  2.634050  4.944790 13.527400
227  2 -0.4871  3.110070 16.550000  1.434370
228  2 -0.5313  2.871790 16.253700 13.589800
229  2 -0.5231  7.039690  5.255390  1.440990
230  2 -0.5431  7.174950  5.079310 13.725200
231  2 -0.5247  7.256330 16.592800  1.446610
232  2 -0.5736  7.053410 16.495200 13.780700
233  2 -0.4976 11.473600  5.056540  1.411150
234  2 -0.4898 11.402700  5.148630 13.442000
235  2 -0.4548 11.311800 16.606900  1.484700
236  2 -0.5087 11.259200 16.455000 13.575700
237  2 -0.5587 15.629500  5.204260  1.501010
238  2 -0.5116 15.452200  5.011170 13.640400
239  2 -0.5384 15.458700 16.713500  1.619360
240  2 -0.5749 15.602500 16.736700 13.493100
241  2 -0.4899  0.688860  6.493410 10.812200
242  2 -0.4783  0.906042  6.318580 22.986200
243  2 -0.5684  0.710418 18.145200 10.528500
244  2 -0.5571  0.747644 18.031000 22.949800
245  2 -0.4922  4.987330  6.384350 11.033300
246  2 -0.5231  5.100730  6.407110 22.709200
247  2 -0.5572  5.182640 17.952800 10.904700
248  2 -0.5209  5.089410 17.874400 23.131100
249  2 -0.4898  9.267000  6.381880 10.663000
250  2 -0.5339  9.219910  6.417820 22.967300
251  2 -0.5106  9.199820 17.813500 10.622500
252  2 -0.4990  9.374040 18.099100 23.143000
253  2 -0.4964 13.449300  6.354000 10.602100
254  2 -0.5054 13.648000  6.558010 23.011700
255  2 -0.5627 13.341900 17.897700 10.501700
256  2 -0.4886 13.425800 18.192100 23.265400
257  2 -0.6473  0.807285 10.013700  0.703869
258  2 -0.6872  0.637755 10.015800 12.957300
259  2 -0.6233  0.823774 21.540300  1.016350
260  2 -0.6345  0.606177 21.527800 12.962600
261  2 -0.6948  5.163600 10.093200  0.690714
262  2 -0.6109  4.832220  9.926710 13.053800
263  2 -0.6024  5.037370 21.511500  0.969943
264  2 -0.6184  4.965550 21.515300 13.219200
265  2 -0.6187  9.267490  9.971810  0.744375
266  2 -0.6650  9.238600 10.023500 12.973900
267  2 -0.6345  9.085450 21.615300  1.019700
268  2 -0.6082  9.348710 21.471700 13.207000
269  2 -0.6257 13.406500 10.223300  0.756353
270  2 -0.6626 13.337200  9.854410 13.016300
271  2 -0.6177 13.484400 21.584800  0.923296
272  2 -0.5845 13.397900 21.329700 13.040500
273  2 -0.6127  2.770570  1.591790 11.387700
274  2 -0.5682  3.000000  1.647020 23.698000
275  2 -0.5513  2.581850 12.910500 11.279100
276  2 -0.6142  3.223460 12.917900 23.305000
277  2 -0.6369  7.208320  1.560730 11.380300
278  2 -0.6899  7.035330  1.725340 23.377500
279  2 -0.6592  6.871410 13.181400 11.282100
280  2 -0.6377  7.242750 13.120600 23.430000
281  2 -0.6400 11.330500  1.625810 11.426700
282  2 -0.6596 11.624400  1.652500 23.578600
283  2 -0.6498 11.362200 13.056000 11.234500
284  2 -0.5928 11.401300 13.162400 23.434700
285  2 -0.6661 15.687800  1.689620 11.194200
286  2 -0.6436 15.661200  1.726190 23.549500
287  2 -0.5836 15.672100 12.981000 11.019900
288  2 -0.6284 15.781500 12.965600 23.391500
289  2 -0.7242  3.010730  4.093530  5.101800
290  2 -0.6126  2.934370  4.300680 17.174300
291  2 -0.6754  2.833930 16.070700  5.185630
292  2 -0.5673  2.842570 15.809000 17.243900
293  2 -0.6680  6.994750  3.999740  5.192950
294  2 -0.6209  7.320540  4.411470 17.347800
295  2 -0.6552  7.024390 15.448600  5.027700
296  2 -0.6838  7.398830 15.772600 17.505500
297  2 -0.5792 11.437200  4.231620  5.160720
298  2 -0.6149 11.493400  4.273830 17.491400
299  2 -0.5786 11.460400 15.666900  5.024400
300  2 -0.6466 11.384600 15.731500 17.480400
301  2 -0.6284 15.587100  4.091080  5.063400
302  2 -0.6405 15.655300  4.014010 17.412200
303  2 -0.6286 15.768500 15.576000  5.127520
304  2 -0.6264 15.407100 15.741900 17.348400
305  2 -0.6643  0.773289  7.322210  6.966870
306  2 -0.6512  0.846931  7.284330 19.222400
307  2 -0.6476  0.795726 18.957500  6.873820
308  2 -0.6449  0.858736 19.080100 19.187800
309  2 -0.6380  5.087470  7.478990  6.883540
310  2 -0.6295  4.920790  7.602680 19.030900
311  2 -0.6022  4.906960 18.789800  7.098960
312  2 -0.6327  5.118260 18.945200 19.100700
313  2 -0.6036  9.029780  7.553570  6.909470
314  2 -0.6806  9.314560  7.429920 19.098800
315  2 -0.5909  9.280440 18.669400  6.955960
316  2 -0.6496  9.365210 18.880400 19.316300
317  2 -0.6663 13.592100  7.513140  6.699430
318  2 -0.6795 13.544300  7.301300 19.250700
319  2 -0.5732 13.663500 18.753900  6.860360
320  2 -0.6557 13.488900 18.906300 19.398200

