Generated by pymatgen.io.lammps.data.LammpsData

320  atoms

  2  atom types

0.00000000 16.55497800  xlo xhi
0.00000000 23.22156422  ylo yhi
0.00000000 24.47245290  zlo zhi

Masses

1  208.9804
2   78.9600

Atoms

1    1  1.00000  1.03468613 11.17105880 10.39114813
2    1  1.00000  1.03468613 11.17105880 22.62737458
3    1  1.00000  1.03468613 22.78184091 10.39114813
4    1  1.00000  1.03468613 22.78184091 22.62737458
5    1  1.00000  5.17343063 11.17105880 10.39114813
6    1  1.00000  5.17343063 11.17105880 22.62737458
7    1  1.00000  5.17343063 22.78184091 10.39114813
8    1  1.00000  5.17343063 22.78184091 22.62737458
9    1  1.00000  9.31217513 11.17105880 10.39114813
10   1  1.00000  9.31217513 11.17105880 22.62737458
11   1  1.00000  9.31217513 22.78184091 10.39114813
12   1  1.00000  9.31217513 22.78184091 22.62737458
13   1  1.00000 13.45091963 11.17105880 10.39114813
14   1  1.00000 13.45091963 11.17105880 22.62737458
15   1  1.00000 13.45091963 22.78184091 10.39114813
16   1  1.00000 13.45091963 22.78184091 22.62737458
17   1  1.00000  3.10405837  0.43972331  1.84507832
18   1  1.00000  3.10405838  0.43972331 14.08130477
19   1  1.00000  3.10405838 12.05050542  1.84507832
20   1  1.00000  3.10405838 12.05050542 14.08130477
21   1  1.00000  7.24280287  0.43972331  1.84507832
22   1  1.00000  7.24280288  0.43972331 14.08130477
23   1  1.00000  7.24280288 12.05050542  1.84507832
24   1  1.00000  7.24280288 12.05050542 14.08130477
25   1  1.00000 11.38154737  0.43972331  1.84507832
26   1  1.00000 11.38154738  0.43972331 14.08130477
27   1  1.00000 11.38154738 12.05050542  1.84507832
28   1  1.00000 11.38154738 12.05050542 14.08130477
29   1  1.00000 15.52029187  0.43972331  1.84507832
30   1  1.00000 15.52029187  0.43972331 14.08130477
31   1  1.00000 15.52029187 12.05050542  1.84507832
32   1  1.00000 15.52029188 12.05050542 14.08130477
33   1  1.00000  3.10405838  5.36566775  7.96319154
34   1  1.00000  3.10405838  5.36566775 20.19941799
35   1  1.00000  3.10405838 16.97644986  7.96319154
36   1  1.00000  3.10405838 16.97644986 20.19941799
37   1  1.00000  7.24280288  5.36566775  7.96319154
38   1  1.00000  7.24280288  5.36566775 20.19941799
39   1  1.00000  7.24280288 16.97644986  7.96319154
40   1  1.00000  7.24280288 16.97644986 20.19941799
41   1  1.00000 11.38154738  5.36566775  7.96319154
42   1  1.00000 11.38154738  5.36566775 20.19941799
43   1  1.00000 11.38154738 16.97644986  7.96319154
44   1  1.00000 11.38154738 16.97644986 20.19941799
45   1  1.00000 15.52029187  5.36566775  7.96319154
46   1  1.00000 15.52029188  5.36566775 20.19941799
47   1  1.00000 15.52029188 16.97644986  7.96319154
48   1  1.00000 15.52029188 16.97644986 20.19941799
49   1  1.00000  1.03468613  6.24511436  4.27303491
50   1  1.00000  1.03468613  6.24511436 16.50926136
51   1  1.00000  1.03468613 17.85589647  4.27303491
52   1  1.00000  1.03468613 17.85589647 16.50926136
53   1  1.00000  5.17343063  6.24511436  4.27303491
54   1  1.00000  5.17343063  6.24511436 16.50926136
55   1  1.00000  5.17343063 17.85589647  4.27303491
56   1  1.00000  5.17343063 17.85589647 16.50926136
57   1  1.00000  9.31217512  6.24511436  4.27303491
58   1  1.00000  9.31217513  6.24511436 16.50926136
59   1  1.00000  9.31217513 17.85589647  4.27303491
60   1  1.00000  9.31217513 17.85589647 16.50926136
61   1  1.00000 13.45091962  6.24511436  4.27303491
62   1  1.00000 13.45091963  6.24511436 16.50926136
63   1  1.00000 13.45091963 17.85589647  4.27303491
64   1  1.00000 13.45091963 17.85589647 16.50926136
65   1  1.00000  1.03468613  1.97988845  6.34807830
66   1  1.00000  1.03468613  1.97988845 18.58430475
67   1  1.00000  1.03468613 13.59067056  6.34807830
68   1  1.00000  1.03468613 13.59067056 18.58430475
69   1  1.00000  5.17343063  1.97988845  6.34807830
70   1  1.00000  5.17343063  1.97988845 18.58430475
71   1  1.00000  5.17343063 13.59067056  6.34807830
72   1  1.00000  5.17343063 13.59067056 18.58430475
73   1  1.00000  9.31217512  1.97988845  6.34807830
74   1  1.00000  9.31217513  1.97988845 18.58430475
75   1  1.00000  9.31217513 13.59067056  6.34807830
76   1  1.00000  9.31217513 13.59067056 18.58430475
77   1  1.00000 13.45091962  1.97988845  6.34807830
78   1  1.00000 13.45091963  1.97988845 18.58430475
79   1  1.00000 13.45091963 13.59067056  6.34807830
80   1  1.00000 13.45091963 13.59067056 18.58430475
81   1  1.00000  3.10405838  9.63089366  5.88814815
82   1  1.00000  3.10405838  9.63089366 18.12437460
83   1  1.00000  3.10405838 21.24167577  5.88814815
84   1  1.00000  3.10405838 21.24167577 18.12437460
85   1  1.00000  7.24280288  9.63089366  5.88814815
86   1  1.00000  7.24280288  9.63089366 18.12437460
87   1  1.00000  7.24280288 21.24167577  5.88814815
88   1  1.00000  7.24280288 21.24167577 18.12437460
89   1  1.00000 11.38154738  9.63089366  5.88814815
90   1  1.00000 11.38154738  9.63089366 18.12437460
91   1  1.00000 11.38154738 21.24167577  5.88814815
92   1  1.00000 11.38154738 21.24167577 18.12437460
93   1  1.00000 15.52029187  9.63089366  5.88814815
94   1  1.00000 15.52029188  9.63089366 18.12437460
95   1  1.00000 15.52029188 21.24167577  5.88814815
96   1  1.00000 15.52029188 21.24167577 18.12437460
97   1  1.00000  3.10405838  7.78527950 12.00626138
98   1  1.00000  3.10405838  7.78527950 24.24248783
99   1  1.00000  3.10405838 19.39606161 12.00626138
100  1  1.00000  3.10405838 19.39606161 24.24248783
101  1  1.00000  7.24280288  7.78527950 12.00626138
102  1  1.00000  7.24280288  7.78527950 24.24248783
103  1  1.00000  7.24280288 19.39606161 12.00626138
104  1  1.00000  7.24280288 19.39606161 24.24248783
105  1  1.00000 11.38154738  7.78527950 12.00626138
106  1  1.00000 11.38154738  7.78527950 24.24248783
107  1  1.00000 11.38154738 19.39606161 12.00626138
108  1  1.00000 11.38154738 19.39606161 24.24248783
109  1  1.00000 15.52029187  7.78527950 12.00626138
110  1  1.00000 15.52029188  7.78527950 24.24248783
111  1  1.00000 15.52029188 19.39606161 12.00626138
112  1  1.00000 15.52029188 19.39606161 24.24248783
113  1  1.00000  1.03468613  3.82550261  0.22996507
114  1  1.00000  1.03468613  3.82550261 12.46619152
115  1  1.00000  1.03468613 15.43628472  0.22996507
116  1  1.00000  1.03468613 15.43628472 12.46619152
117  1  1.00000  5.17343063  3.82550261  0.22996507
118  1  1.00000  5.17343063  3.82550261 12.46619152
119  1  1.00000  5.17343063 15.43628472  0.22996507
120  1  1.00000  5.17343063 15.43628472 12.46619152
121  1  1.00000  9.31217512  3.82550261  0.22996507
122  1  1.00000  9.31217513  3.82550261 12.46619152
123  1  1.00000  9.31217513 15.43628472  0.22996507
124  1  1.00000  9.31217513 15.43628472 12.46619152
125  1  1.00000 13.45091962  3.82550261  0.22996507
126  1  1.00000 13.45091963  3.82550261 12.46619152
127  1  1.00000 13.45091963 15.43628472  0.22996507
128  1  1.00000 13.45091963 15.43628472 12.46619152
129  2 -0.66700  1.03468613  3.53855502  8.71012629
130  2 -0.66700  1.03468613  3.53855502 20.94635274
131  2 -0.66700  1.03468613 15.14933713  8.71012629
132  2 -0.66700  1.03468613 15.14933713 20.94635274
133  2 -0.66700  5.17343063  3.53855502  8.71012629
134  2 -0.66700  5.17343063  3.53855502 20.94635274
135  2 -0.66700  5.17343063 15.14933713  8.71012629
136  2 -0.66700  5.17343063 15.14933713 20.94635274
137  2 -0.66700  9.31217512  3.53855502  8.71012629
138  2 -0.66700  9.31217513  3.53855502 20.94635274
139  2 -0.66700  9.31217513 15.14933713  8.71012629
140  2 -0.66700  9.31217513 15.14933713 20.94635274
141  2 -0.66700 13.45091962  3.53855502  8.71012629
142  2 -0.66700 13.45091963  3.53855502 20.94635274
143  2 -0.66700 13.45091963 15.14933713  8.71012629
144  2 -0.66700 13.45091963 15.14933713 20.94635274
145  2 -0.66700  3.10405838  8.07222709  3.52610016
146  2 -0.66700  3.10405838  8.07222709 15.76232661
147  2 -0.66700  3.10405838 19.68300920  3.52610016
148  2 -0.66700  3.10405838 19.68300920 15.76232661
149  2 -0.66700  7.24280288  8.07222709  3.52610016
150  2 -0.66700  7.24280288  8.07222709 15.76232661
151  2 -0.66700  7.24280288 19.68300920  3.52610016
152  2 -0.66700  7.24280288 19.68300920 15.76232661
153  2 -0.66700 11.38154738  8.07222709  3.52610016
154  2 -0.66700 11.38154738  8.07222709 15.76232661
155  2 -0.66700 11.38154738 19.68300920  3.52610016
156  2 -0.66700 11.38154738 19.68300920 15.76232661
157  2 -0.66700 15.52029187  8.07222709  3.52610016
158  2 -0.66700 15.52029188  8.07222709 15.76232661
159  2 -0.66700 15.52029188 19.68300920  3.52610016
160  2 -0.66700 15.52029188 19.68300920 15.76232661
161  2 -0.66700  3.10405838  9.34394607  9.64421339
162  2 -0.66700  3.10405838  9.34394607 21.88043984
163  2 -0.66700  3.10405838 20.95472818  9.64421339
164  2 -0.66700  3.10405838 20.95472818 21.88043984
165  2 -0.66700  7.24280288  9.34394607  9.64421339
166  2 -0.66700  7.24280288  9.34394607 21.88043984
167  2 -0.66700  7.24280288 20.95472818  9.64421339
168  2 -0.66700  7.24280288 20.95472818 21.88043984
169  2 -0.66700 11.38154738  9.34394607  9.64421339
170  2 -0.66700 11.38154738  9.34394607 21.88043984
171  2 -0.66700 11.38154738 20.95472818  9.64421339
172  2 -0.66700 11.38154738 20.95472818 21.88043984
173  2 -0.66700 15.52029187  9.34394607  9.64421339
174  2 -0.66700 15.52029188  9.34394607 21.88043984
175  2 -0.66700 15.52029188 20.95472818  9.64421339
176  2 -0.66700 15.52029188 20.95472818 21.88043984
177  2 -0.66700  1.03468613  2.26683604  2.59201306
178  2 -0.66700  1.03468613  2.26683604 14.82823951
179  2 -0.66700  1.03468613 13.87761815  2.59201306
180  2 -0.66700  1.03468613 13.87761815 14.82823951
181  2 -0.66700  5.17343063  2.26683604  2.59201306
182  2 -0.66700  5.17343063  2.26683604 14.82823951
183  2 -0.66700  5.17343063 13.87761815  2.59201306
184  2 -0.66700  5.17343063 13.87761815 14.82823951
185  2 -0.66700  9.31217512  2.26683604  2.59201306
186  2 -0.66700  9.31217513  2.26683604 14.82823951
187  2 -0.66700  9.31217513 13.87761815  2.59201306
188  2 -0.66700  9.31217513 13.87761815 14.82823951
189  2 -0.66700 13.45091962  2.26683604  2.59201306
190  2 -0.66700 13.45091963  2.26683604 14.82823951
191  2 -0.66700 13.45091963 13.87761815  2.59201306
192  2 -0.66700 13.45091963 13.87761815 14.82823951
193  2 -0.66700  1.03468613 11.00654737  4.58995795
194  2 -0.66700  1.03468613 11.00654737 16.82618440
195  2 -0.66700  1.03468613 22.61732948  4.58995795
196  2 -0.66700  1.03468613 22.61732948 16.82618440
197  2 -0.66700  5.17343063 11.00654737  4.58995795
198  2 -0.66700  5.17343063 11.00654737 16.82618440
199  2 -0.66700  5.17343063 22.61732948  4.58995795
200  2 -0.66700  5.17343063 22.61732948 16.82618440
201  2 -0.66700  9.31217513 11.00654737  4.58995795
202  2 -0.66700  9.31217513 11.00654737 16.82618440
203  2 -0.66700  9.31217513 22.61732948  4.58995795
204  2 -0.66700  9.31217513 22.61732948 16.82618440
205  2 -0.66700 13.45091963 11.00654737  4.58995795
206  2 -0.66700 13.45091963 11.00654737 16.82618440
207  2 -0.66700 13.45091963 22.61732948  4.58995795
208  2 -0.66700 13.45091963 22.61732948 16.82618440
209  2 -0.66700  3.10405838  0.60423474  7.64626850
210  2 -0.66700  3.10405838  0.60423474 19.88249495
211  2 -0.66700  3.10405838 12.21501685  7.64626850
212  2 -0.66700  3.10405838 12.21501685 19.88249495
213  2 -0.66700  7.24280288  0.60423474  7.64626850
214  2 -0.66700  7.24280288  0.60423474 19.88249495
215  2 -0.66700  7.24280288 12.21501685  7.64626850
216  2 -0.66700  7.24280288 12.21501685 19.88249495
217  2 -0.66700 11.38154737  0.60423474  7.64626850
218  2 -0.66700 11.38154738  0.60423474 19.88249495
219  2 -0.66700 11.38154738 12.21501685  7.64626850
220  2 -0.66700 11.38154738 12.21501685 19.88249495
221  2 -0.66700 15.52029187  0.60423474  7.64626850
222  2 -0.66700 15.52029187  0.60423474 19.88249495
223  2 -0.66700 15.52029187 12.21501685  7.64626850
224  2 -0.66700 15.52029188 12.21501685 19.88249495
225  2 -0.66700  3.10405838  5.20115632  1.52815528
226  2 -0.66700  3.10405838  5.20115632 13.76438173
227  2 -0.66700  3.10405838 16.81193843  1.52815528
228  2 -0.66700  3.10405838 16.81193843 13.76438173
229  2 -0.66700  7.24280288  5.20115632  1.52815528
230  2 -0.66700  7.24280288  5.20115632 13.76438173
231  2 -0.66700  7.24280288 16.81193843  1.52815528
232  2 -0.66700  7.24280288 16.81193843 13.76438173
233  2 -0.66700 11.38154738  5.20115632  1.52815528
234  2 -0.66700 11.38154738  5.20115632 13.76438173
235  2 -0.66700 11.38154738 16.81193843  1.52815528
236  2 -0.66700 11.38154738 16.81193843 13.76438173
237  2 -0.66700 15.52029187  5.20115632  1.52815528
238  2 -0.66700 15.52029188  5.20115632 13.76438173
239  2 -0.66700 15.52029188 16.81193843  1.52815528
240  2 -0.66700 15.52029188 16.81193843 13.76438173
241  2 -0.66700  1.03468613  6.40962579 10.70807117
242  2 -0.66700  1.03468613  6.40962579 22.94429762
243  2 -0.66700  1.03468613 18.02040790 10.70807117
244  2 -0.66700  1.03468613 18.02040790 22.94429762
245  2 -0.66700  5.17343063  6.40962579 10.70807117
246  2 -0.66700  5.17343063  6.40962579 22.94429762
247  2 -0.66700  5.17343063 18.02040790 10.70807117
248  2 -0.66700  5.17343063 18.02040790 22.94429762
249  2 -0.66700  9.31217512  6.40962579 10.70807117
250  2 -0.66700  9.31217513  6.40962579 22.94429762
251  2 -0.66700  9.31217513 18.02040790 10.70807117
252  2 -0.66700  9.31217513 18.02040790 22.94429762
253  2 -0.66700 13.45091962  6.40962579 10.70807117
254  2 -0.66700 13.45091963  6.40962579 22.94429762
255  2 -0.66700 13.45091963 18.02040790 10.70807117
256  2 -0.66700 13.45091963 18.02040790 22.94429762
257  2 -0.66700  1.03468613 10.06775131  0.64244643
258  2 -0.66700  1.03468613 10.06775131 12.87867288
259  2 -0.66700  1.03468613 21.67853342  0.64244643
260  2 -0.66700  1.03468613 21.67853342 12.87867288
261  2 -0.66700  5.17343063 10.06775131  0.64244643
262  2 -0.66700  5.17343063 10.06775131 12.87867288
263  2 -0.66700  5.17343063 21.67853342  0.64244643
264  2 -0.66700  5.17343063 21.67853342 12.87867288
265  2 -0.66700  9.31217513 10.06775131  0.64244643
266  2 -0.66700  9.31217513 10.06775131 12.87867288
267  2 -0.66700  9.31217513 21.67853342  0.64244643
268  2 -0.66700  9.31217513 21.67853342 12.87867288
269  2 -0.66700 13.45091963 10.06775131  0.64244643
270  2 -0.66700 13.45091963 10.06775131 12.87867288
271  2 -0.66700 13.45091963 21.67853342  0.64244643
272  2 -0.66700 13.45091963 21.67853342 12.87867288
273  2 -0.66700  3.10405838  1.54303080 11.59378002
274  2 -0.66700  3.10405838  1.54303080 23.83000647
275  2 -0.66700  3.10405838 13.15381291 11.59378002
276  2 -0.66700  3.10405838 13.15381291 23.83000647
277  2 -0.66700  7.24280288  1.54303080 11.59378002
278  2 -0.66700  7.24280288  1.54303080 23.83000647
279  2 -0.66700  7.24280288 13.15381291 11.59378002
280  2 -0.66700  7.24280288 13.15381291 23.83000647
281  2 -0.66700 11.38154738  1.54303080 11.59378002
282  2 -0.66700 11.38154738  1.54303080 23.83000647
283  2 -0.66700 11.38154738 13.15381291 11.59378002
284  2 -0.66700 11.38154738 13.15381291 23.83000647
285  2 -0.66700 15.52029187  1.54303080 11.59378002
286  2 -0.66700 15.52029187  1.54303080 23.83000647
287  2 -0.66700 15.52029188 13.15381291 11.59378002
288  2 -0.66700 15.52029188 13.15381291 23.83000647
289  2 -0.66700  3.10405838  4.26236026  5.47566680
290  2 -0.66700  3.10405838  4.26236026 17.71189325
291  2 -0.66700  3.10405838 15.87314237  5.47566680
292  2 -0.66700  3.10405838 15.87314237 17.71189325
293  2 -0.66700  7.24280288  4.26236026  5.47566680
294  2 -0.66700  7.24280288  4.26236026 17.71189325
295  2 -0.66700  7.24280288 15.87314237  5.47566680
296  2 -0.66700  7.24280288 15.87314237 17.71189325
297  2 -0.66700 11.38154738  4.26236026  5.47566680
298  2 -0.66700 11.38154738  4.26236026 17.71189325
299  2 -0.66700 11.38154738 15.87314237  5.47566680
300  2 -0.66700 11.38154738 15.87314237 17.71189325
301  2 -0.66700 15.52029187  4.26236026  5.47566680
302  2 -0.66700 15.52029188  4.26236026 17.71189325
303  2 -0.66700 15.52029188 15.87314237  5.47566680
304  2 -0.66700 15.52029188 15.87314237 17.71189325
305  2 -0.66700  1.03468613  7.34842185  6.76055965
306  2 -0.66700  1.03468613  7.34842185 18.99678610
307  2 -0.66700  1.03468613 18.95920396  6.76055965
308  2 -0.66700  1.03468613 18.95920396 18.99678610
309  2 -0.66700  5.17343063  7.34842185  6.76055965
310  2 -0.66700  5.17343063  7.34842185 18.99678610
311  2 -0.66700  5.17343063 18.95920396  6.76055965
312  2 -0.66700  5.17343063 18.95920396 18.99678610
313  2 -0.66700  9.31217512  7.34842185  6.76055965
314  2 -0.66700  9.31217513  7.34842185 18.99678610
315  2 -0.66700  9.31217513 18.95920396  6.76055965
316  2 -0.66700  9.31217513 18.95920396 18.99678610
317  2 -0.66700 13.45091962  7.34842185  6.76055965
318  2 -0.66700 13.45091963  7.34842185 18.99678610
319  2 -0.66700 13.45091963 18.95920396  6.76055965
320  2 -0.66700 13.45091963 18.95920396 18.99678610

