Generated by pymatgen.io.lammps.data.LammpsData

216  atoms

  2  atom types

0.000000 18.096178  xlo xhi
0.000000 18.140645  ylo yhi
0.000000 18.233787  zlo zhi

Masses

1  208.9804
2   78.9600

Atoms

1    1  0.7899  0.471324 18.003900  0.607114
2    1  0.7236 17.669200  0.446225  6.366030
3    1  0.7432  0.618538 17.948300 13.045600
4    1  0.7819  0.535228  6.130890  0.884330
5    1  0.6434  0.256159  5.635350  7.185920
6    1  0.7193  0.428382  6.390290 13.481100
7    1  0.7934 18.109900 11.698500  0.929629
8    1  0.7397 17.917700 11.633300  6.885740
9    1  0.8046  0.864495 11.824200 13.138800
10   1  0.7195  5.937020 18.001100  0.964799
11   1  0.7140  5.989430 18.301500  6.918130
12   1  0.8682  6.392270 18.062400 12.923600
13   1  0.8037  6.796150  6.127320  0.587088
14   1  0.7056  6.312350  6.068980  7.150700
15   1  0.8175  6.285350  5.938380 12.974800
16   1  0.7795  6.344460 12.001200  0.616053
17   1  0.7398  6.767340 12.346100  7.451380
18   1  0.8212  6.447490 12.182900 13.085700
19   1  0.7220 12.447500 17.470700  0.322975
20   1  0.7164 13.097000  0.510979  6.061900
21   1  0.7850 11.659200 18.100500 12.707500
22   1  0.9433 12.523300  5.764200  0.916176
23   1  0.7810 12.888000  6.654140  6.414910
24   1  0.6301 11.544700  5.102190 12.146900
25   1  0.6929 12.369700 11.589400  1.197050
26   1  0.7755 12.716500 12.481500  7.111720
27   1  0.7630 12.706200 12.167400 12.809900
28   1  0.7625  1.021740  3.091660  3.830520
29   1  0.6817  0.528183  2.541750 10.176500
30   1  0.8396 18.044600  2.959940 16.079700
31   1  0.7191  0.261631  8.757070  3.532500
32   1  0.6634  0.786508  9.044590  9.333330
33   1  0.7112  0.647106  8.910860 16.028400
34   1  0.8030  0.195037 15.110100  3.485820
35   1  0.7593 17.902900 14.933100  9.236900
36   1  0.7499  0.573675 15.283400 15.194800
37   1  0.7932  6.229380  3.208500  3.677180
38   1  0.7212  6.239090  2.507200  8.742830
39   1  0.7773  6.450760  2.702270 15.958400
40   1  0.8154  6.442180  9.469320  3.709770
41   1  0.7410  6.835370  8.760280  9.879250
42   1  0.7922  6.666300  8.433170 16.038900
43   1  0.7681  5.773550 15.197700  3.395610
44   1  0.7673  6.117820 15.171200  9.950850
45   1  0.8553  6.234690 15.326200 15.878100
46   1  0.8013 12.048100  2.882850  3.995070
47   1  0.7565 12.163900  3.658130  9.220770
48   1  0.8441 13.051400  3.007510 15.260400
49   1  0.7955 12.563700  9.324310  3.753990
50   1  0.8578 12.237600  9.119750 10.228800
51   1  0.9045 12.192900  8.805730 16.473600
52   1  0.6978 12.012700 16.087500  3.652520
53   1  0.7276 12.527200 15.208400  9.940150
54   1  0.6614 11.720500 14.559500 16.158000
55   1  0.8341  3.264320 17.870900  3.631480
56   1  0.8037  3.447820 -0.182088 10.074400
57   1  0.7742  3.650120 17.754200 15.289400
58   1  0.8965  3.268580  5.565820  4.264140
59   1  0.6837  2.527930  5.957830 10.393400
60   1  0.7949  3.715110  5.719530 16.334300
61   1  0.7037  2.757630 12.647200  2.912880
62   1  0.8517  3.068630 12.097100 10.002900
63   1  0.7645  4.115520 11.255000 16.294500
64   1  0.7115  8.741650 18.148500  3.442750
65   1  0.8816  9.121200 17.859500  9.573160
66   1  0.7115  9.881920 17.718000 15.982900
67   1  0.8329  9.225780  5.562020  3.811790
68   1  0.7405  9.520050  5.969080  9.549330
69   1  0.7461  9.168120  5.258650 15.469500
70   1  0.7481  9.095260 12.084400  3.765650
71   1  0.7315  9.249440 11.511000  9.794050
72   1  0.7901  9.167670 11.659700 15.461600
73   1  0.7506 15.792400 17.980100  3.203110
74   1  0.7878 15.659700 17.530500  9.681500
75   1  0.8207 15.769900 17.438000 15.996200
76   1  0.7470 15.459400  6.105380  4.030230
77   1  0.7768 14.675400  5.548400 10.247500
78   1  0.8229 14.974000  5.684390 16.419100
79   1  0.8729 15.451200 11.932900  3.767570
80   1  0.7258 15.716800 11.083400  9.848630
81   1  0.7470 15.505500 11.966000 15.695100
82   1  0.9213  3.319640  3.394400  0.759477
83   1  0.6760  3.818780  2.497070  6.429950
84   1  0.8209  3.601930  3.005460 12.290000
85   1  0.6948  3.554180  8.731640  0.581775
86   1  0.8694  3.933690  8.873900  6.788280
87   1  0.8866  3.541920  8.970050 12.994400
88   1  0.7128  3.244190 14.795500  0.362622
89   1  0.7964  3.223200 15.182500  7.323950
90   1  0.7506  3.327610 14.632000 13.381000
91   1  0.7504  9.301850  2.485590  0.366916
92   1  0.7830  9.733950  3.208710  6.490610
93   1  0.7781  9.014190  2.495370 13.036000
94   1  0.8176  9.429480  8.601580  0.936944
95   1  0.7841  9.489400  9.045020  6.800520
96   1  0.7934  9.542300  8.669670 12.498900
97   1  0.7531  9.119740 14.996300  0.269880
98   1  0.8084  9.477020 15.105900  6.964010
99   1  0.7849  9.450160 15.296300 12.879300
100  1  0.8748 15.041000  2.939230  1.169400
101  1  0.7503 15.146000  2.893730  7.003520
102  1  0.7381 15.880400  2.775720 12.274200
103  1  0.8265 15.118700  9.072660  0.714000
104  1  0.6231 15.493600  8.960460  7.059360
105  1  0.8151 14.989600  8.167490 13.242200
106  1  0.7088 14.649400 15.159100 18.332100
107  1  0.7357 15.052300 15.035200  6.492660
108  1  0.8248 15.485100 14.720800 12.856500
109  2 -0.7472  3.568670  0.744145  0.641620
110  2 -0.7333  3.171200 17.917600  6.799310
111  2 -0.8647  3.373000 18.371800 12.813500
112  2 -0.7763  3.543540  5.887550  0.957984
113  2 -0.7819  3.395540  5.906510  6.930060
114  2 -0.7851  3.241590  6.042530 13.108100
115  2 -0.8939  3.245680 11.996200  0.438514
116  2 -0.5483  3.611030 11.745900  6.864000
117  2 -0.7911  3.541450 11.625300 13.023800
118  2 -0.8353  9.514790 17.689600  0.741047
119  2 -0.6984  8.977580 17.707200  6.944950
120  2 -0.8919  9.049520 18.332500 12.353900
121  2 -0.7362  9.837380  6.042280  1.051650
122  2 -0.7852  9.678710  6.029580  6.680930
123  2 -0.8672  8.970960  5.494140 12.793500
124  2 -0.7128  9.103140 11.282900  0.458794
125  2 -0.7999  9.288710 11.846500  6.721330
126  2 -0.7439  9.427070 12.445400 12.627200
127  2 -0.7371 15.406200 18.179900  0.234847
128  2 -0.9323 15.223300 17.922500  6.877780
129  2 -0.6805 15.787600 17.270100 12.457800
130  2 -0.7198 15.340700  5.812170  1.164250
131  2 -0.7892 15.439300  5.934920  7.407290
132  2 -0.7351 14.665900  5.780260 13.602700
133  2 -0.7377 15.382400 12.220500  0.940122
134  2 -0.8413 15.434200 11.981000  6.531050
135  2 -0.7414 15.517100 11.878100 12.957000
136  2 -0.8922  3.581620  3.214110  3.204950
137  2 -0.7952  3.226130  3.262840  9.712320
138  2 -0.6587  3.874870  2.859760 15.910200
139  2 -0.6021  3.750600  8.142570  3.599000
140  2 -0.7357  3.389550  9.476540  9.784330
141  2 -0.8876  4.109600  8.432360 16.095400
142  2 -0.7689  3.163790 15.505300  4.314080
143  2 -0.7628  3.163860 15.000100 10.290400
144  2 -0.8632  3.400160 14.893300 16.033600
145  2 -0.8275  9.300320  2.982120  3.215730
146  2 -0.7127  9.560580  2.635100  9.026240
147  2 -0.8281  9.859710  2.319650 15.766500
148  2 -0.7648  9.406660  9.520100  3.972580
149  2 -0.9955  9.359130  8.931970  9.915790
150  2 -0.6860  9.731120  8.220040 15.414400
151  2 -0.7034  8.975320 15.430000  3.660740
152  2 -0.7916  9.388180 15.294100  9.763610
153  2 -0.8687  9.287710 14.878900 15.653000
154  2 -0.7396 15.017000  3.253040  3.895540
155  2 -0.8220 15.633200  2.997580  9.793700
156  2 -0.7082 15.400400  2.450200 15.441100
157  2 -0.8495 15.316500  8.850700  3.690220
158  2 -0.7534 14.778500  8.740550 10.542900
159  2 -0.7519 14.830200  8.579930 16.336900
160  2 -0.6810 15.319900 15.236700  3.134340
161  2 -0.7791 15.140200 14.552700  9.900410
162  2 -0.8224 15.946100 14.765600 15.699400
163  2 -0.8843  0.296426 -0.200145  3.476470
164  2 -0.7474  0.337298 17.838000  9.796440
165  2 -0.8043  0.528362 17.927400 16.003400
166  2 -0.8238  0.804846  5.858810  3.630880
167  2 -0.7329 17.704200  6.330350 10.494900
168  2 -0.7714 17.700800  5.709890 16.391000
169  2 -0.7916 18.192500 12.132300  3.678420
170  2 -0.8254  0.536688 11.664900 10.019800
171  2 -0.6853  0.509615 11.806200 16.160200
172  2 -0.8738  5.651230 17.810200  3.924160
173  2 -0.8007  5.891740 -0.046670 10.142600
174  2 -0.8458  6.460430 -0.104477 15.756400
175  2 -0.7077  6.621000  5.867270  3.430980
176  2 -0.7181  6.678400  5.743000  9.917500
177  2 -0.8778  6.280380  5.790940 16.031900
178  2 -0.7197  5.845400 12.245200  3.628560
179  2 -0.7753  6.362000 11.905400 10.319800
180  2 -0.7926  6.614180 12.157800 16.009700
181  2 -0.7761 13.014200  0.461918  2.842690
182  2 -0.5924 12.423000 18.221800  9.225610
183  2 -0.7140 12.664100  0.009955 15.690100
184  2 -0.7055 12.246000  6.000100  3.525360
185  2 -0.8805 12.322000  6.156650  9.256050
186  2 -0.6757 11.963400  5.605070 15.969600
187  2 -0.7275 12.879800 11.774700  4.114930
188  2 -0.7607 12.653800 11.718000  9.997320
189  2 -0.7575 12.161300 11.374100 15.888900
190  2 -0.7160 17.918800  3.083740  0.581874
191  2 -0.7903  1.115160  2.769830  6.487980
192  2 -0.7538  0.675553  3.178040 13.432800
193  2 -0.8427 17.781300  8.897570  0.407939
194  2 -0.7375  1.276630  9.266600  6.160790
195  2 -0.7990  0.948221  9.141020 13.265700
196  2 -0.6785 18.209700 15.292700  0.514462
197  2 -0.6996 18.168800 14.555100  6.543280
198  2 -0.7319  0.430070 15.153600 12.375500
199  2 -0.7120  6.203570  3.194810  0.405433
200  2 -0.8897  6.985040  3.212180  6.291760
201  2 -0.6787  6.472040  2.609920 12.219800
202  2 -0.8213  6.808160  9.010510  0.678354
203  2 -0.7796  6.377960  9.280250  6.554540
204  2 -0.7664  6.188950  8.770800 12.980600
205  2 -0.8504  6.111670 14.909700  0.382438
206  2 -0.7276  6.446520 15.363600  7.396060
207  2 -0.8117  6.109700 15.162100 13.093600
208  2 -0.6491 12.573700  2.943550  0.900484
209  2 -0.8554 12.676300  3.467900  6.541730
210  2 -0.7564 12.669600  2.405100 12.552600
211  2 -0.8712 12.408000  8.335710  0.782049
212  2 -0.6936 12.710600  9.630830  6.854990
213  2 -0.6782 11.956600  8.947350 13.061900
214  2 -0.8393 11.887600 14.440200  0.876259
215  2 -0.7672 12.338200 15.710000  6.470820
216  2 -0.7926 12.283500 15.265500 13.257900

