Generated by pymatgen.io.lammps.data.LammpsData

216  atoms

  2  atom types

0.000000 18.096178  xlo xhi
0.000000 18.140645  ylo yhi
0.000000 18.233787  zlo zhi

Masses

1  208.9804
2   78.9600

Atoms

1    1  0.8045 18.675800 18.470500  0.246185
2    1  0.7469  0.887197  0.194558  6.013490
3    1  0.8286 18.711000 18.366300 12.097400
4    1  0.7874  0.712472  6.504230 -0.034420
5    1  0.8154 18.552000  6.191640  6.076320
6    1  0.7742 18.501300  6.352780 12.114400
7    1  0.7568 18.565500 12.218000 18.611000
8    1  0.8134  0.575476 12.493500  6.180070
9    1  0.7856  0.033330 12.210100 12.018200
10   1  0.8523  6.490960 18.255800 18.471200
11   1  0.7102  6.609870  0.342142  6.197030
12   1  0.7960  6.376350  0.435780 12.746600
13   1  0.7545  6.379890  6.100800 18.399100
14   1  0.8102  6.321450  6.604350  6.456490
15   1  0.8071  6.314090  6.427830 12.083800
16   1  0.8114  6.243830 12.241200 18.358500
17   1  0.7804  6.203420 12.445000  6.195490
18   1  0.7922  6.230660 12.362500 12.185200
19   1  0.7476 12.285300 18.433800  0.232931
20   1  0.8045 12.764600 18.444100  6.389870
21   1  0.7697 12.368600  0.177775 11.995000
22   1  0.8239 12.579700  6.025900 -0.229701
23   1  0.7759 12.345100  6.487390  6.296800
24   1  0.8064 12.512800  6.087020 12.429300
25   1  0.7478 12.267200 12.051900 18.488400
26   1  0.8687 12.418400 12.301500  5.801360
27   1  0.7415 12.632200 12.337100 12.453700
28   1  0.7951  0.434305  3.306200  3.489360
29   1  0.8522  0.469934  3.457010  9.033580
30   1  0.7356 18.392200  3.181350 15.009600
31   1  0.7845 18.300200  9.430150  2.816840
32   1  0.8501  0.136767  9.543800  9.006490
33   1  0.8799  0.317329  9.244040 14.859800
34   1  0.8198 -0.006978 15.399600  2.864970
35   1  0.7510 18.413900 15.319500  9.132160
36   1  0.7894  0.044624 14.960400 15.296300
37   1  0.8397  6.480550  3.153380  3.023290
38   1  0.8073  6.526650  3.301840  9.462350
39   1  0.7453  6.257850  3.451990 15.573500
40   1  0.7038  6.514030  9.132440  3.259110
41   1  0.8012  6.477420  9.589560  9.485710
42   1  0.7447  6.073510  9.390810 15.465800
43   1  0.7647  6.155440 15.490200  3.288270
44   1  0.7654  6.300250 15.301700  9.098590
45   1  0.8092  6.211310 15.565500 15.531900
46   1  0.7226 12.585800  2.975970  3.030490
47   1  0.7667 12.082400  3.267840  9.406440
48   1  0.8181 12.215200  3.084890 15.341300
49   1  0.7944 12.664400  9.460180  3.091940
50   1  0.7131 12.172900  9.273930  9.739810
51   1  0.8056 12.633600  9.412000 15.419000
52   1  0.8319 12.339000 15.168600  3.422100
53   1  0.7826 12.496900 15.563900  9.116550
54   1  0.7956 12.420200 15.317300 15.459500
55   1  0.7549  3.358940  0.136435  3.033820
56   1  0.7432  3.591290 18.353800  9.239350
57   1  0.8360  3.068580 18.457400 15.399800
58   1  0.7911  3.377130  6.303200  3.270540
59   1  0.8599  3.372410  6.688030  8.981490
60   1  0.7663  3.371690  6.146750 15.290600
61   1  0.7900  3.331050 12.367100  3.538050
62   1  0.8736  3.646850 12.139300  8.996090
63   1  0.7544  2.964580 12.497700 15.259400
64   1  0.8238  9.509560 18.488500  3.230630
65   1  0.7501  9.502590 -0.047268  9.609940
66   1  0.7786  9.235300  0.301794 15.411400
67   1  0.7589  9.333720  6.345820  3.308320
68   1  0.7386  9.366040  6.647000  9.178210
69   1  0.8377  9.330690  6.274320 15.132400
70   1  0.7331  9.485980 12.410200  3.240560
71   1  0.8014  9.791940 12.282800  9.522230
72   1  0.8986  9.546780 12.268100 15.350500
73   1  0.8312 15.598500  0.356477  3.383000
74   1  0.8098 15.694700  0.425930  9.440010
75   1  0.8071 15.420900 18.371000 15.516700
76   1  0.7945 15.720300  6.176980  3.066930
77   1  0.8005 15.601200  6.303420  9.585080
78   1  0.7878 15.731500  6.442780 15.233800
79   1  0.7641 15.536700 12.205500  3.052470
80   1  0.7268 15.606200 12.363300  9.120990
81   1  0.7275 15.197000 12.408700 15.151300
82   1  0.8443  3.636470  3.430810  0.130531
83   1  0.8422  3.448790  3.470750  6.035340
84   1  0.7685  3.402030  3.208770 12.586000
85   1  0.7850  3.669220  9.425910  0.199550
86   1  0.7815  3.152210  9.391170  6.196740
87   1  0.7980  3.388750  9.301000 12.393100
88   1  0.8100  3.289080 15.402400  0.139209
89   1  0.7233  3.374750 15.560700  6.146700
90   1  0.7978  3.188970 15.255800 12.378700
91   1  0.8198  9.514550  3.481720  0.224173
92   1  0.7111  9.542420  3.263120  6.398880
93   1  0.7524  9.386260  3.406110 12.239100
94   1  0.7809  9.162350  9.248370  0.177385
95   1  0.7587  9.514970  9.414050  6.154870
96   1  0.7876  9.476750  9.479220 12.192700
97   1  0.7606  9.596270 15.534800  0.113329
98   1  0.8375  9.229670 15.192100  6.440150
99   1  0.7738  9.123720 14.970600 12.174000
100  1  0.7582 15.578500  3.410090  0.128175
101  1  0.8256 15.672800  3.145190  6.347900
102  1  0.8368 15.669000  3.179560 11.921900
103  1  0.8157 15.632700  9.330880  0.035477
104  1  0.8368 15.532900  9.329050  5.975930
105  1  0.7354 15.646700  9.108030 12.313000
106  1  0.8127 15.380200 15.243300 18.387000
107  1  0.7951 15.425000 15.386500  6.078460
108  1  0.7513 15.426600 15.324200 12.367600
109  2 -0.7837  3.500140  0.749469 18.502700
110  2 -0.8402  3.649160 18.830800  6.094450
111  2 -0.7924  3.458970  0.213822 12.633700
112  2 -0.8308  3.695060  6.305780 18.268900
113  2 -0.8318  3.307650  6.371320  6.278210
114  2 -0.7647  3.288830  6.516480 11.979400
115  2 -0.7798  3.317030 12.590600  0.004753
116  2 -0.8566  3.297480 12.647600  6.267150
117  2 -0.7524  3.318310 12.363900 12.301500
118  2 -0.8066  9.246110 18.494300 18.525100
119  2 -0.7441  9.837060 -0.034558  6.241810
120  2 -0.7796  9.275450 -0.136122 12.401700
121  2 -0.7737  9.574860  6.095470 -0.006372
122  2 -0.8114  9.447990  6.313900  6.332360
123  2 -0.7957  9.275740  6.302520 12.444700
124  2 -0.7546  9.155030 12.196400 18.257500
125  2 -0.7341  9.439080 12.427300  6.611820
126  2 -0.8400  9.722490 12.210800 12.557100
127  2 -0.7212 15.693400 18.598400 18.583200
128  2 -0.7994 15.640000 18.477900  6.096010
129  2 -0.7572 15.694300  0.277766 12.028800
130  2 -0.7759 15.748100  6.448110 -0.159056
131  2 -0.6957 15.594500  6.429570  6.291120
132  2 -0.8595 15.414000  6.044600 12.266000
133  2 -0.8140 15.264400 12.319700  0.255325
134  2 -0.7626 15.385000 12.349400  6.046370
135  2 -0.8917 15.364000 12.098400 12.255600
136  2 -0.7652  3.466060  3.325010  3.154390
137  2 -0.6806  3.399690  3.412550  9.212070
138  2 -0.8579  3.070560  3.003640 15.494500
139  2 -0.7905  3.080240  9.155050  3.276180
140  2 -0.7851  3.385340  9.498080  9.075960
141  2 -0.7680  3.167750  9.370880 15.349600
142  2 -0.8057  3.088360 15.276600  2.850700
143  2 -0.7489  3.395110 15.107900  9.250780
144  2 -0.7964  2.918400 15.485300 15.554800
145  2 -0.7880  9.379730  3.127170  3.193550
146  2 -0.8573  9.259730  3.342200  9.485490
147  2 -0.7933  9.322690  3.179190 15.335300
148  2 -0.8188  9.547630  9.402600  3.170080
149  2 -0.8762  9.356500  9.607100  9.355190
150  2 -0.7072  9.771030  9.563300 15.457900
151  2 -0.7406  9.207690 15.531900  3.092200
152  2 -0.8210  9.672810 15.415100  9.155500
153  2 -0.7151  9.227740 15.332400 15.333200
154  2 -0.8154 15.527900  3.337460  3.137520
155  2 -0.8044 15.850200  3.263740  9.219520
156  2 -0.7530 15.477100  3.288280 15.321900
157  2 -0.8377 15.462600  9.083140  2.960930
158  2 -0.7604 15.545400  9.240400  8.995850
159  2 -0.8369 15.888500  9.048940 15.229700
160  2 -0.7689 15.200500 15.267500  3.035150
161  2 -0.8067 15.464500 15.438800  8.861990
162  2 -0.8209 15.469600 15.497900 15.286500
163  2 -0.8059 18.373800  0.341716  3.174870
164  2 -0.7794  0.446465  0.452655  9.503060
165  2 -0.7420 18.437600 18.272100 15.246800
166  2 -0.8089  0.362401  6.423880  3.242920
167  2 -0.7706  0.447680  6.499500  8.914990
168  2 -0.8204  0.758509  6.667090 15.075100
169  2 -0.8354  0.342673 12.372900  3.182920
170  2 -0.7899  0.726640 12.323300  9.265310
171  2 -0.7972 18.169600 12.065000 15.032400
172  2 -0.7920  6.566760 18.334600  3.167220
173  2 -0.7800  6.259120 18.444000  9.736060
174  2 -0.8130  6.313600 18.411400 15.631300
175  2 -0.7913  6.420180  6.214150  3.332640
176  2 -0.7984  6.288610  6.494970  9.209810
177  2 -0.8110  6.309270  6.310480 15.069900
178  2 -0.7866  6.153100 12.227400  3.274100
179  2 -0.8204  6.357510 12.518000  9.394680
180  2 -0.7123  6.543810 12.530100 15.491400
181  2 -0.7690 12.547800 18.125800  3.249180
182  2 -0.8537 12.416800  0.378877  9.265070
183  2 -0.7609 12.474500  0.322890 15.208400
184  2 -0.6922 12.363600  6.416900  3.375520
185  2 -0.7874 12.432500  6.082270  9.576410
186  2 -0.7433 12.034300  6.340050 15.474800
187  2 -0.9043 12.264700 12.382000  3.115550
188  2 -0.6888 12.474000 12.310400  8.633560
189  2 -0.8314 12.210800 12.515100 15.464700
190  2 -0.7052  0.646356  3.310520  0.494372
191  2 -0.8589  0.491216  3.186110  6.299200
192  2 -0.8125 18.485600  3.303790 12.089200
193  2 -0.7617 18.733000  9.334500 -0.073187
194  2 -0.7867 18.389000  9.468690  6.155270
195  2 -0.8045 18.773700  9.189220 11.742100
196  2 -0.7949  0.170208 15.415300 18.493100
197  2 -0.8056 18.488000 15.338200  5.966840
198  2 -0.7835  0.235380 15.287800 12.212600
199  2 -0.8248  6.587970  3.189570  0.301564
200  2 -0.7078  6.295760  3.688450  6.169180
201  2 -0.7867  6.199850  3.381050 12.369500
202  2 -0.8663  6.388800  9.209860 18.341200
203  2 -0.7836  6.396960  9.555990  6.538880
204  2 -0.8256  6.673930  9.486600 12.327400
205  2 -0.7640  6.273870 15.379100  0.110856
206  2 -0.8664  6.334890 15.467500  6.238070
207  2 -0.7458  6.169890 15.097600 12.489600
208  2 -0.8589 12.424100  3.258410 -0.032073
209  2 -0.7540 12.855700  3.099370  6.373310
210  2 -0.7702 12.616900  3.121880 12.482400
211  2 -0.7540 12.893300  9.042330  0.118573
212  2 -0.7374 12.553700  9.439200  6.157990
213  2 -0.8160 12.719500  9.033090 12.601500
214  2 -0.7826 12.578100 15.572800 18.618200
215  2 -0.7341 12.264800 15.077600  6.330790
216  2 -0.7757 12.532000 15.219400 12.644300

