Generated by pymatgen.io.lammps.data.LammpsData

504  atoms

  2  atom types

0.000000 17.774667  xlo xhi
0.000000 21.986255  ylo yhi
0.000000 41.650458  zlo zhi

Masses

1  208.9804
2   78.9600

Atoms

1    1  0.8439 16.695000 14.855400 12.434400
2    1  0.8337  1.322380 18.525800 12.381400
3    1  0.8247 16.383600  7.378680 12.004800
4    1  0.8551  0.690472 11.258300 12.506700
5    1  0.8599  3.469470 14.722500 12.055200
6    1  0.8430  6.104110 18.247700 12.215500
7    1  0.8416 16.895900 22.090400 12.622700
8    1  0.7433  0.712479  4.047290 12.072800
9    1  0.7564  3.294730  7.072720 12.232100
10   1  0.8832  6.206820 10.957000 12.186600
11   1  0.8319  8.323200 14.691100 12.203900
12   1  0.8566 10.276100 18.367800 11.979400
13   1  0.8788  3.359950 22.602100 12.178000
14   1  0.7964  6.176740  3.532620 11.412100
15   1  0.8429  8.411770  7.580260 12.568000
16   1  0.9028 10.091400 11.618500 11.925300
17   1  0.8599 12.408400 15.073300 12.372100
18   1  0.8550 14.540200 18.416800 12.781800
19   1  0.7645  8.183890 21.946300 12.311200
20   1  0.8128 10.067900  3.814360 11.975500
21   1  0.8665 11.884800  7.926400 12.321100
22   1  0.8305 14.811100 11.289800 11.784100
23   1  0.7960 13.027500  0.559118 12.192600
24   1  0.7351 14.302500  3.947650 11.551800
25   1  0.8538  0.613510 13.308600  1.371310
26   1  0.8395  2.486450 16.943200  1.800930
27   1  0.8218  0.555384  5.957320  1.945980
28   1  0.8179  2.999500  9.776340  2.326380
29   1  0.8745  4.874870 13.832800  1.937260
30   1  0.7435  7.107270 17.286500  1.088350
31   1  0.7663  1.179060 21.048300  2.088290
32   1  0.7874  2.710360  2.387540  1.887760
33   1  0.8567  5.415800  6.403590  1.564630
34   1  0.6996  7.077050 10.088100  2.406750
35   1  0.8170  8.814450 13.087600  1.556550
36   1  0.8336 11.734400 17.118000  1.643250
37   1  0.8827  5.249220 20.714000  1.915060
38   1  0.8231  7.004660  2.285120  2.361930
39   1  0.7775  9.032010  6.191270  2.748320
40   1  0.7819 11.939900  9.606550  1.640380
41   1  0.6909 13.267000 13.211100  2.216750
42   1  0.8119 16.304600 17.048500  1.975420
43   1  0.8543  9.463290 20.632800  1.606020
44   1  0.7693 11.371200  2.288530  2.708070
45   1  0.8355 13.437900  5.697910  2.088540
46   1  0.7859 16.356300  9.329560  1.579720
47   1  0.7563 14.949700 20.370300  2.561470
48   1  0.8046 16.527100  2.314390  2.277440
49   1  0.2666  0.138668 12.779300  5.667450
50   1  0.1740  2.187780 14.723800  6.905420
51   1  0.1718 -0.122651  6.766800  7.949560
52   1  0.3269  2.338260  8.900230  8.987060
53   1  0.2195  4.916030 13.610300  7.722410
54   1  0.1890  7.148070 18.570800  7.511460
55   1  0.2740  0.900816 19.572900  8.048410
56   1  0.2705 14.879100  1.212490  7.270540
57   1  0.1646  4.107920  7.952520  6.853170
58   1  0.2883  7.141880  8.349100  6.238800
59   1  0.2173  7.122110 15.730900  6.473930
60   1  0.3344  8.789710 18.158000  5.199010
61   1  0.2698  5.353920  1.109550  6.257200
62   1  0.2339  7.584520  2.184810  7.885390
63   1  0.3854 12.428700  7.515470  5.634010
64   1  0.1787 11.097400 10.847500  6.920070
65   1  0.1809 12.304600 13.398700  6.083870
66   1  0.1781 14.431400 16.101300  6.235030
67   1  0.2723  5.193670 20.704900  8.250950
68   1  0.2960 11.941800 21.581100  6.103140
69   1  0.3296 12.510300  8.854150  8.459020
70   1  0.1891 15.977700  8.391330  5.875140
71   1  0.3189 13.963300 20.397500  8.326910
72   1  0.4133 -0.045555  2.980590  8.619190
73   1  0.1505  2.789910 11.608300  7.080440
74   1  0.1789  4.307600 17.513000  7.917890
75   1  0.2176  2.636050  5.501270  7.437720
76   1  0.1312  5.581020 10.714100  7.330930
77   1  0.2310  8.401490 12.805100  6.939940
78   1  0.1595 10.634500 18.938200  7.436260
79   1  0.2164  1.431480 17.649200  6.156290
80   1  0.4407  3.508100  2.640880  8.651450
81   1  0.3321  6.181180  5.747140  7.919300
82   1  0.3280  8.442190  9.826190  8.216310
83   1  0.3085 10.248900 15.045400  5.406950
84   1  0.1865 11.886600 16.183500  7.830140
85   1  0.2520  3.066760 19.981900  6.289000
86   1  0.3444  8.266550  4.298460  5.673710
87   1  0.2389 10.707200  2.638150  6.539340
88   1  0.0678 13.877200 10.735700  6.853450
89   1  0.2109 15.019100 13.490000  7.673390
90   1  0.1673 17.150100 15.262100  7.132280
91   1  0.1812 13.437400 18.702200  6.105940
92   1  0.2570 13.561900  3.829100  6.486070
93   1  0.2482 14.466400  6.519120  7.913140
94   1  0.1192  0.293688 10.091400  7.074100
95   1  0.1865 16.239200 18.305200  6.891050
96   1  0.4159  0.090486  4.220560  5.370060
97   1  0.7323  1.642030 13.445800 25.469000
98   1  0.7232  3.726450 17.689300 26.480000
99   1  0.6273  1.709650  6.589870 25.516800
100  1  0.7452  4.536120  9.572110 25.417400
101  1  0.8120  6.045930 13.288200 26.487200
102  1  0.8291  8.294580 17.373200 26.096400
103  1  0.8685  2.008760 21.545500 26.032000
104  1  0.8150  4.438600  2.949920 26.357400
105  1  0.8842  6.926470  6.017800 26.170400
106  1  0.7702  8.665500  9.998680 25.829100
107  1  0.8008 10.334900 14.451800 26.434500
108  1  0.7637 13.064100 17.617300 26.043500
109  1  0.8752  5.937610 21.014000 25.817700
110  1  0.8474  8.944550  2.823750 25.909500
111  1  0.9084 10.972600  6.338400 26.480000
112  1  0.8244 12.934900 10.423400 26.371800
113  1  0.7388 14.556700 14.257200 25.772600
114  1  0.7963 17.524700 17.526300 26.037300
115  1  0.8017 10.781800 21.358100 26.143100
116  1  0.9095 13.156800  3.055350 26.461100
117  1  0.8925 15.240500  6.454730 26.361000
118  1  0.7714 17.381600 10.259000 25.861300
119  1  0.8905 15.061600 21.473000 26.117600
120  1  0.7579 -0.110094  3.552770 26.011700
121  1  0.8569  0.891924 16.094400 15.489800
122  1  0.8269  3.684580 19.940800 15.540400
123  1  0.7475  1.079810  8.843610 14.757900
124  1  0.6435  3.588120 12.232800 15.850200
125  1  0.7773  6.263220 15.747900 15.417200
126  1  0.7939  7.715700 19.143500 15.592400
127  1  0.7920  1.226570  1.524630 15.299300
128  1  0.8499  3.454330  5.118810 15.308100
129  1  0.7837  5.804280  8.355370 14.641000
130  1  0.7461  7.437830 12.356500 15.795400
131  1  0.8385 10.339600 15.817000 15.380100
132  1  0.9025 12.687700 19.821400 15.777100
133  1  0.7748  6.269810  1.292470 15.386300
134  1  0.8416  7.724580  4.964340 15.263400
135  1  0.8285 10.155500  9.047190 15.473200
136  1  0.8181 12.835800 12.526300 15.656800
137  1  0.7760 15.060500 16.350900 15.748200
138  1  0.8490 17.409000 19.825100 15.638500
139  1  0.7742 10.292700  1.101390 15.175800
140  1  0.8702 12.558900  5.564520 15.485700
141  1  0.7992 14.639000  8.746830 15.523000
142  1  0.8264 16.987100 12.474500 15.852000
143  1  0.7927 14.747400  1.697280 16.270000
144  1  0.7729 16.766900  5.235150 15.283900
145  1  0.2238  4.333360 12.219000 22.118600
146  1  0.1925  5.105950 20.565100 20.202500
147  1  0.2534  1.440290  3.703730 19.612000
148  1  0.1608  4.572930 10.969800 19.269500
149  1  0.1630  6.989540 13.884000 20.185400
150  1  0.2203  5.406840 15.890900 21.317500
151  1  0.1854  1.421320 20.597400 21.067400
152  1  0.2235  3.890570  3.919900 21.446900
153  1  0.2876  6.038800  6.448530 19.375900
154  1  0.1673  7.132010 10.975700 21.415200
155  1  0.2762  9.880010 12.344200 21.236900
156  1  0.3324 11.485000 21.006100 22.787700
157  1  0.1859  8.134550 21.184100 21.413100
158  1  0.1671  6.811070  3.851020 20.125600
159  1  0.2929 10.204600  5.730980 22.115000
160  1  0.2118 10.034800  9.179280 20.434900
161  1  0.3727 14.596900 13.229600 19.526700
162  1  0.3225  0.031761 17.984100 19.899500
163  1  0.1492 13.600900 20.271900 20.334400
164  1  0.2188 13.405300  3.928480 20.573500
165  1  0.2671 15.101600  6.302650 21.641700
166  1  0.3643 16.577100 12.045800 21.869700
167  1  0.2484 16.490200 19.773600 21.675400
168  1  0.1279  0.690370  5.414750 21.804400
169  1  0.1763  2.553470 16.075200 20.423600
170  1  0.1818  5.783650  1.303830 21.283200
171  1  0.1752  1.942040 10.935700 20.412600
172  1  0.1711  4.283910 14.066200 19.301000
173  1  0.2560  3.789550 18.596100 21.875200
174  1  0.2113 10.446300 20.278400 19.962600
175  1  0.1706  3.129260  0.860314 20.288800
176  1  0.2196  2.718730  6.730840 20.204800
177  1  0.1976  4.596160  9.277570 21.893300
178  1  0.2853  9.361790 15.876800 20.478700
179  1  0.1854 12.401800 17.932900 20.373400
180  1  0.1781 14.818200  1.392740 20.946800
181  1  0.1456  8.858760  2.110710 20.911800
182  1  0.1830  7.645410  8.118990 21.594400
183  1  0.2346  9.295860  5.986020 19.535100
184  1  0.2358 12.399100 14.452900 21.039300
185  1  0.2225 15.197700 16.855100 20.990800
186  1  0.1877  0.306405  1.512360 21.274500
187  1  0.1450 11.727800  1.024270 20.811600
188  1  0.3104 12.689200  6.950360 19.681800
189  1  0.3878 13.347600  9.072440 21.914200
190  1  0.1588  1.647510 13.755500 21.393400
191  1  0.1324 16.534600  3.826440 20.418400
192  1  0.2916  0.233295  8.069560 22.347200
193  1  0.7993  0.670555 16.291800 39.896200
194  1  0.8117  2.676920 19.946700 39.864700
195  1  0.8589  0.853378  8.312000 40.389400
196  1  0.8633  2.810940 12.190600 39.976900
197  1  0.8797  5.086970 15.716000 40.251800
198  1  0.7337  7.989540 19.594400 40.110500
199  1  0.7563  0.947774  1.221750 40.108900
200  1  0.8116  2.790920  5.101890 40.685300
201  1  0.7634  5.587040  8.780660 40.305200
202  1  0.7829  7.333930 12.065800 40.024800
203  1  0.7626  9.420850 16.051300 39.969600
204  1  0.7843 12.651400 19.370300 39.774300
205  1  0.8773  5.278650  1.498980 40.593100
206  1  0.8785  7.450550  4.720760 40.411400
207  1  0.8365  9.575460  8.902570 39.872900
208  1  0.8371 12.234900 12.148500 40.112400
209  1  0.9227 14.172100 15.766900 40.047400
210  1  0.8320 16.434100 19.381800 40.243800
211  1  0.8714 10.010000  1.094580 40.616800
212  1  0.8359 11.634900  4.836120 40.577700
213  1  0.7999 14.023000  8.056780 40.000200
214  1  0.8604 16.054400 11.829300 40.090600
215  1  0.8487 14.375300  1.222110 40.726000
216  1  0.8824 16.269200  4.651670 40.277700
217  1  0.8261 17.248300 15.240600 29.264800
218  1  0.7698  2.026270 18.970800 29.211900
219  1  0.8744 17.373300  7.831740 29.054800
220  1  0.8729  1.670010 11.229500 28.650800
221  1  0.7933  4.092140 14.704300 29.198800
222  1  0.8352  5.822850 18.561400 29.443500
223  1  0.8477 17.262700  0.509843 29.624200
224  1  0.7843  2.184600  4.053640 29.113700
225  1  0.7572  4.294290  7.616080 28.982000
226  1  0.8291  6.719350 10.862700 29.079700
227  1  0.8004  8.197880 14.789500 29.623100
228  1  0.8222 11.044100 18.883900 29.191100
229  1  0.8414  4.477460  0.552768 29.180900
230  1  0.7150  6.866440  3.419140 29.335700
231  1  0.8208  9.133940  7.485850 29.643000
232  1  0.9002 11.043500 11.258700 29.488400
233  1  0.7388 12.958600 14.770000 30.007600
234  1  0.8163 15.334200 19.037700 28.862300
235  1  0.8380  8.831880  0.215766 29.575300
236  1  0.9368 11.040200  4.003870 29.467300
237  1  0.7832 13.324300  7.977040 29.909600
238  1  0.7698 14.844000 11.239400 29.469400
239  1  0.8887 13.238100 22.105300 29.791300
240  1  0.8492 15.000100  3.939120 29.780000
241  1  0.1809  4.674350 14.325600 34.139000
242  1  0.1023  4.146830 21.160300 34.868700
243  1  0.3503  2.288450  6.815810 36.756900
244  1  0.1892  2.445600 12.951600 35.612300
245  1  0.2836  6.936210 16.365900 33.098700
246  1  0.1484  9.687600 18.642600 34.146700
247  1  0.2252  8.595500 20.560700 36.060200
248  1  0.1544  4.619970  5.227490 34.909600
249  1  0.1658  7.497050  5.513910 34.588200
250  1  0.2934 10.384300 13.533900 36.149400
251  1  0.1304 12.611000 14.758600 34.573800
252  1  0.2177 14.674800 19.491600 34.600600
253  1  0.1706  6.560250  0.397151 34.129100
254  1  0.2162 10.172400  4.467180 35.794100
255  1  0.2137  9.852730  7.294950 34.191600
256  1  0.2021 12.183000 11.778800 34.975900
257  1  0.1940 15.074000 12.703800 34.058600
258  1  0.2002  2.167920 19.446600 33.731200
259  1  0.1529 12.067400 20.858100 35.015900
260  1  0.1846 12.437900  5.451860 34.305400
261  1  0.1790 14.731900  7.233680 35.508700
262  1  0.1767 -0.450306 11.386200 35.162500
263  1  0.2302 -0.491383 21.182500 34.098900
264  1  0.2550 16.946000  3.867720 34.115300
265  1  0.1664 17.414700 14.292700 35.284500
266  1  0.1580  2.060590 16.092800 34.627200
267  1  0.1821 17.663300  8.550860 35.236700
268  1  0.1596  2.427130  9.892730 35.001700
269  1  0.1610  4.495370 17.476500 34.973200
270  1  0.1441  6.597370 19.520200 34.091000
271  1  0.3164  1.913060  0.148092 36.358600
272  1  0.2013  1.837650  3.850590 35.595300
273  1  0.2069  5.450540  8.473130 33.972700
274  1  0.1608  7.554990 13.615100 34.988800
275  1  0.1088  9.612280 15.684000 34.710200
276  1  0.2667 12.108200 18.062600 36.181600
277  1  0.1495  3.958830  2.156020 34.715200
278  1  0.1891  6.960360  2.826710 35.687600
279  1  0.1617  5.151750 11.725200 34.804600
280  1  0.2360  8.247220 10.298500 34.405000
281  1  0.1878 15.170300 16.188100 34.065200
282  1  0.2158 -0.330540 18.115500 35.275100
283  1  0.1652  9.639880  1.407610 34.761100
284  1  0.2062 12.251300  1.772650 35.743100
285  1  0.2349 12.526500  8.701110 33.930800
286  1  0.1789 15.022500 10.059500 34.731400
287  1  0.1942 14.866700  0.927833 34.581100
288  1  0.1976 14.517300  3.936590 35.682400
289  2 -0.6444 16.410900 14.768000 41.453200
290  2 -0.7885  0.799162 18.541700  0.346025
291  2 -0.7689 16.509500  6.976070  0.325780
292  2 -0.6789  0.893938 10.646400 -0.065893
293  2 -0.7534  2.985240 14.625900 41.447100
294  2 -0.6255  4.694340 18.616400 -0.208981
295  2 -0.7788 16.503900 22.080000  0.597806
296  2 -0.8094  0.391898  3.626170  0.287642
297  2 -0.7510  2.955510  7.357230  0.513081
298  2 -0.6977  4.730890 11.277200  0.253240
299  2 -0.8068  7.268740 14.548400 -0.175379
300  2 -0.7822 10.214600 18.652700 41.328700
301  2 -0.8000  3.276770 21.971800  0.207412
302  2 -0.7235  5.293210  3.762510  0.405239
303  2 -0.7133  7.715820  7.162040  0.155592
304  2 -0.7674  9.355290 10.601700  0.503700
305  2 -0.6682 11.950100 14.699700  0.071908
306  2 -0.7264 14.339300 17.883400 -0.186024
307  2 -0.7081  7.334500 22.121100  0.414391
308  2 -0.6950  9.135170  3.397420  0.987339
309  2 -0.6536 11.398800  7.245540  0.022292
310  2 -0.7843 13.769800 10.473100 -0.263212
311  2 -0.6135 11.742500 21.856000  0.629654
312  2 -0.6820 13.955600  3.323930  0.726607
313  2 -0.6973  0.383987 15.482400  3.081880
314  2 -0.6406  3.372970 19.424000  3.292510
315  2 -0.7073  0.614499  8.534570  3.542730
316  2 -0.6842  2.984800 12.494000  2.947410
317  2 -0.6284  4.749940 16.069000  3.433580
318  2 -0.7507  7.351960 19.376000  2.753420
319  2 -0.7118  0.662826  1.157350  4.112360
320  2 -0.6048  2.738340  4.641240  3.431660
321  2 -0.7500  5.166620  8.281970  3.497980
322  2 -0.6943  6.889570 12.762200  3.562540
323  2 -0.6520  9.063680 16.212700  2.709500
324  2 -0.6389 12.363700 19.581100  3.457390
325  2 -0.6859  4.708220  1.333810  3.511280
326  2 -0.7140  6.649470  4.823950  3.647150
327  2 -0.7119  9.715370  8.363240  4.371280
328  2 -0.7085 10.648100 12.559100  3.614490
329  2 -0.7319 13.543600 15.937700  3.447710
330  2 -0.7447 16.943900 18.965000  3.849050
331  2 -0.7321  9.514600  0.629500  3.691200
332  2 -0.7857 11.312700  5.050320  3.882940
333  2 -0.7400 13.795600  8.066580  2.884370
334  2 -0.6825 16.036400 12.227500  2.574040
335  2 -0.6254 13.844100  0.913150  3.607690
336  2 -0.7464 15.819000  4.694750  3.684180
337  2 -0.6383  1.209750 15.502100 10.901800
338  2 -0.6831  2.949320 19.900000 10.687500
339  2 -0.7595  0.765434  8.636730 11.344000
340  2 -0.5670  2.823580 11.874600 10.762900
341  2 -0.6737  5.910360 15.801800 10.718000
342  2 -0.6762  8.220580 19.469400 10.525300
343  2 -0.7592  1.519750  1.995840 10.619800
344  2 -0.7938  4.216170  5.117510 10.004600
345  2 -0.6508  5.995310  8.582990 10.941800
346  2 -0.7751  7.908040 12.483500 10.956000
347  2 -0.7048 10.222900 15.986900 10.473900
348  2 -0.5943 12.902400 20.060300 10.912500
349  2 -0.7678  5.343520  1.138640 10.503800
350  2 -0.5976  8.519330  5.595740 10.394900
351  2 -0.7158 10.071400  9.127340 10.670700
352  2 -0.6472 12.367600 12.407700 10.501900
353  2 -0.6787 14.474600 16.165400 11.033400
354  2 -0.6043 16.604300 19.561000 11.169400
355  2 -0.6827 10.046500  1.342870 10.478100
356  2 -0.6194 11.971500  5.193500 10.506000
357  2 -0.7204 14.097600  8.451890 11.097400
358  2 -0.6516 16.885700 12.572500 10.398600
359  2 -0.7090 15.140500  1.183720 10.331700
360  2 -0.8624 16.297400  5.172940 10.176600
361  2 -0.7586  0.812279 13.639200 14.002500
362  2 -0.6415  3.651720 17.306500 13.525900
363  2 -0.8611  1.251560  6.203640 13.477900
364  2 -0.7139  3.866770  9.947180 13.729400
365  2 -0.7047  5.480290 13.226900 13.663500
366  2 -0.8327  8.190420 17.313600 13.538500
367  2 -0.8149  1.412200 21.047000 13.918900
368  2 -0.6486  3.823010  2.741500 13.586200
369  2 -0.7172  6.187200  6.036330 13.362400
370  2 -0.7779  8.116230 10.354200 13.792000
371  2 -0.7676 10.609700 13.635100 13.736900
372  2 -0.7549 12.343300 17.469200 14.007800
373  2 -0.7430  5.960930 20.513800 13.739800
374  2 -0.8343  8.028910  2.497890 13.464700
375  2 -0.7640 10.457700  6.315050 13.844900
376  2 -0.6792 12.297000 10.386600 13.634100
377  2 -0.7329 14.538900 13.535700 13.762900
378  2 -0.8654 17.074600 17.476900 14.065600
379  2 -0.6574 10.929400 20.882400 13.675800
380  2 -0.6469 12.254500  3.046740 14.370200
381  2 -0.7836 14.584200  6.498470 13.743100
382  2 -0.7806 16.541900 10.544700 14.038700
383  2 -0.6730 14.544500 21.231200 13.923500
384  2 -0.7951 16.670800  2.343820 13.867700
385  2 -0.7393 16.859100 15.062800 17.458900
386  2 -0.6547  1.226160 18.143000 17.255100
387  2 -0.5517 16.902100  7.511770 16.982700
388  2 -0.6347  1.163440 10.561900 17.264300
389  2 -0.6820  3.738030 14.916000 16.593400
390  2 -0.6251  5.529300 18.004900 17.017500
391  2 -0.7078 17.015200  0.012962 17.249200
392  2 -0.6830  1.003040  3.964000 16.877900
393  2 -0.6093  3.844880  6.942930 17.207600
394  2 -0.6416  6.791660 10.080800 17.247200
395  2 -0.7588  8.265660 14.892800 16.813100
396  2 -0.6006 10.369500 18.593600 16.816000
397  2 -0.6724  3.729850  0.303390 16.641800
398  2 -0.6588  5.401760  4.070050 16.639100
399  2 -0.6493  8.292810  7.158320 16.084600
400  2 -0.5593  9.931190 11.573500 17.663200
401  2 -0.6595 12.693600 15.421500 17.050000
402  2 -0.6753 15.051500 18.801300 16.953100
403  2 -0.6831  7.934170 21.830400 17.070300
404  2 -0.5722 10.443000  4.140230 17.386200
405  2 -0.7051 12.197400  8.126440 17.308900
406  2 -0.6773 14.820800 11.347800 17.193100
407  2 -0.6489 12.462200  0.190501 17.076600
408  2 -0.6660 14.234800  4.401350 17.332600
409  2 -0.6821 17.007500 15.520800 24.217800
410  2 -0.6979  1.736560 18.955800 24.491200
411  2 -0.7092 16.086400  7.680960 24.347800
412  2 -0.8056  1.606290 10.811900 24.215000
413  2 -0.6494  4.182960 14.148400 24.380700
414  2 -0.6571  6.090910 18.662100 24.736200
415  2 -0.5703 -0.307330  0.772854 24.605800
416  2 -0.6436  2.402590  3.700910 24.393000
417  2 -0.6866  4.890530  7.245400 24.103700
418  2 -0.7505  6.276220 11.259000 24.625100
419  2 -0.5806  7.998150 15.090800 24.400800
420  2 -0.7027 10.456400 19.150600 24.632200
421  2 -0.6663  3.713580  0.597869 24.567500
422  2 -0.6241  6.853170  3.846710 24.370800
423  2 -0.6532  9.064360  7.114060 24.654100
424  2 -0.6180 10.945100 10.754600 24.293700
425  2 -0.7170 12.131200 15.405900 24.685700
426  2 -0.6922 15.001900 18.966500 24.728500
427  2 -0.6806  8.430580  0.386552 25.127900
428  2 -0.6457 11.145600  3.976160 24.935100
429  2 -0.4980 12.811100  7.406770 24.388700
430  2 -0.6460 14.812600 11.636000 23.891200
431  2 -0.6725 13.190700  0.777847 24.770500
432  2 -0.6332 14.935900  4.455370 24.587100
433  2 -0.7837  1.654070 16.410400 27.713100
434  2 -0.8228  4.466300 20.211400 27.906300
435  2 -0.7855  1.606380  8.775930 27.316200
436  2 -0.7223  4.090890 12.152700 27.621400
437  2 -0.7826  6.245920 16.332800 28.016900
438  2 -0.5761  8.210810 19.855400 28.022900
439  2 -0.7457  1.980730  1.911810 27.767100
440  2 -0.7684  4.170190  5.395700 27.213900
441  2 -0.7476  6.793550  8.395350 27.752600
442  2 -0.7784  8.558850 12.459600 27.884000
443  2 -0.7261 10.671500 16.259400 28.100300
444  2 -0.8346 13.332200 20.482400 27.513000
445  2 -0.7635  6.675080  1.166330 27.677700
446  2 -0.8450  8.912200  4.978200 27.580500
447  2 -0.7681 10.993800  8.836650 27.851700
448  2 -0.8250 12.682800 12.593800 28.031400
449  2 -0.7439 14.864000 16.298000 28.028900
450  2 -0.7311  0.042567 20.123500 27.543800
451  2 -0.7349 11.395500  1.575320 27.887100
452  2 -0.7855 13.007300  5.490670 28.250800
453  2 -0.8018 15.127700  8.872070 27.654300
454  2 -0.7216 17.260600 12.705700 27.214200
455  2 -0.7475 14.995400  1.813630 27.994100
456  2 -0.8342 -0.458078  5.449110 27.726900
457  2 -0.4691  1.700160 13.782100 30.789000
458  2 -0.7133  3.834750 16.946700 30.909600
459  2 -0.4840  1.463680  6.522020 31.224600
460  2 -0.4991  3.437430 10.182800 30.216400
461  2 -0.6324  5.863950 13.015700 30.750100
462  2 -0.6257  8.605680 17.229900 30.950300
463  2 -0.6136  1.924740 21.504400 30.628400
464  2 -0.6416  4.398390  2.616430 31.027200
465  2 -0.6098  6.491370  6.162730 30.703200
466  2 -0.6364  8.623140 10.057800 30.787900
467  2 -0.6305 10.421200 13.477500 31.149600
468  2 -0.5768 13.128400 17.862100 30.803000
469  2 -0.6279  6.499470 21.058300 30.686500
470  2 -0.6243  9.253370  2.624840 30.947100
471  2 -0.6879 10.760800  6.053170 31.125200
472  2 -0.8043 12.673900 10.409900 31.216200
473  2 -0.6362 16.046600 13.269100 30.845100
474  2 -0.5867 -0.630781 18.149100 30.737900
475  2 -0.6518 11.128400 20.937800 30.965000
476  2 -0.6543 12.736600  2.907090 30.993300
477  2 -0.6420 15.180700  6.579870 31.170900
478  2 -0.5413 17.236000  9.963240 30.614500
479  2 -0.7091 15.379700 21.247200 30.971800
480  2 -0.6100 -0.390914  2.873530 30.984300
481  2 -0.6165  0.249041 13.512500 38.919000
482  2 -0.6009  3.093330 17.187800 38.668000
483  2 -0.7169  0.622056  5.731170 38.879000
484  2 -0.6626  2.753720  9.629250 38.852900
485  2 -0.6366  5.226760 13.419900 38.671300
486  2 -0.6193  6.754040 17.174300 38.456100
487  2 -0.7301  0.616658 20.797000 38.246800
488  2 -0.6778  3.188580  2.807680 38.992000
489  2 -0.6127  5.220470  5.870230 39.159700
490  2 -0.7457  7.207140  9.780720 38.543400
491  2 -0.6863  9.784240 13.762200 38.922900
492  2 -0.7329 12.258200 16.932300 38.590800
493  2 -0.5587  5.546650 21.251200 38.702600
494  2 -0.5854  7.889600  2.292830 39.260600
495  2 -0.6052  9.665090  5.986140 38.853100
496  2 -0.6354 11.896600  9.828950 38.477100
497  2 -0.6445 14.022600 12.647800 38.312300
498  2 -0.6622 16.110800 17.129000 38.614100
499  2 -0.7096  9.972180 21.297700 38.731800
500  2 -0.6183 12.076100  2.439250 39.175900
501  2 -0.6895 13.814600  5.490020 39.005200
502  2 -0.6703 16.471900  9.630770 38.705200
503  2 -0.6202 15.033600 20.551800 38.488300
504  2 -0.6139 16.326300  2.264810 38.942900

