Generated by pymatgen.io.lammps.data.LammpsData

320  atoms

  2  atom types

0.000000 24.637781  xlo xhi
0.000000 17.058433  ylo yhi
0.000000 27.370788  zlo zhi

Masses

1  208.9804
2   78.9600

Atoms

1    1  0.7753 -1.624220  2.194290  3.134070
2    1  0.6357 21.865400 18.166500 14.799300
3    1  0.6577 -1.293480 10.486500  1.177690
4    1  0.7901 -2.575770  9.895360 15.187800
5    1  0.7445 11.878400  4.541200  3.114940
6    1  0.6312  5.919350 15.633200 17.632300
7    1  0.7104 11.635700 12.243300  4.297110
8    1  0.6633  9.378210  7.054710 16.672600
9    1  0.6727  2.104160  6.640580 10.451300
10   1  0.5547  4.838200  5.096880 25.294600
11   1  0.6729  1.219920 14.160400  7.952920
12   1  0.6096  4.522000 14.064000 24.547800
13   1  0.7228 15.438700  6.811520 11.220700
14   1  0.6515 17.317300  4.348470 24.711700
15   1  0.8323 15.719200 15.069700 11.925400
16   1  0.6263 16.784800 14.155000 24.004100
17   1  0.6685  3.247830  3.566310  5.847770
18   1  0.8000  4.119410  7.030240 18.434200
19   1  0.7086  5.314360 13.816700  1.035980
20   1  0.7538  3.438900 14.819700 19.516900
21   1  0.6975 15.905000  6.250590  6.413670
22   1  0.8341 18.010700  5.662770 20.635000
23   1  0.6171 15.401200 14.004600  6.723830
24   1  0.5435 15.857400 14.554800 20.968200
25   1  0.6657 21.852500 17.639700 10.863600
26   1  0.7414 -1.479210 17.602300 24.158300
27   1  0.6699 -1.893080  8.945410 11.305200
28   1  0.7243 -1.658890  9.866400 23.532300
29   1  0.4770 10.046100  1.363270 10.222000
30   1  0.6095 10.816500  1.479620 23.831300
31   1  0.7924 10.011500 11.321600  8.909410
32   1  0.5626 10.266900  9.502530 22.979400
33   1  0.6548 -0.487169  6.058060  2.549020
34   1  0.7430 21.989400  5.084650 15.396800
35   1  0.7375 -1.185460 14.469600  2.319720
36   1  0.7789 22.235000 14.416500 15.698900
37   1  0.8308 12.806300  8.463640  2.985160
38   1  0.6932  8.546700 17.285800 16.008300
39   1  0.5972  8.615900 14.150700  3.581960
40   1  0.7685  7.002420 11.599700 17.184400
41   1  0.6391 21.166600  5.239100 10.844000
42   1  0.6054 -1.791370  5.190940 23.554800
43   1  0.7659 20.808600 13.958400 11.945400
44   1  0.7191 -1.924890 13.720200 24.074500
45   1  0.6797  9.171350  7.131370 11.142300
46   1  0.5728 11.381700  5.998570 24.095400
47   1  0.7708 10.219700 13.917200 14.106700
48   1  0.6622 10.496600 14.662300 23.402200
49   1  0.7202  1.912460 13.507200  3.944500
50   1  0.5531  4.658020 17.762600 22.247100
51   1  0.6779  2.657600  7.402200  5.324250
52   1  0.8556  0.435392  8.236150 17.281800
53   1  0.6826 15.586800  1.516600  6.873830
54   1  0.7837 14.069000  3.320500 17.209800
55   1  0.6761 19.071800  8.607050  4.910510
56   1  0.7929 16.735800  9.808960 19.839500
57   1  0.7225  4.596100 17.850000 10.192900
58   1  0.4770  4.472210  1.698210 25.585100
59   1  0.7727  1.091470 11.126300 12.674300
60   1  0.8022  4.539660 10.362400 23.200100
61   1  0.7196 15.676800  2.186260 10.072400
62   1  0.6233 17.117600 17.819000 24.062500
63   1  0.7246 14.184600 10.314900 10.588600
64   1  0.7055 16.381200  9.694920 24.986800
65   1  0.7500  1.580940  9.560600 25.593400
66   1  0.6414  0.056541  7.212970 13.276900
67   1  0.7389  3.187310 17.761100  1.339960
68   1  0.8204  0.519098 15.220700 12.443300
69   1  0.6949 12.689400  8.897150 26.111600
70   1  0.7014 12.956600  6.825010 14.885300
71   1  0.7117 13.884000 16.193600 26.765700
72   1  0.6688 11.996400 17.213400 13.385600
73   1  0.7074  7.432840  6.564630 26.116400
74   1  0.7264  7.826590  5.207620 14.050100
75   1  0.6549  8.082680 15.686600 26.300800
76   1  0.5426  7.005710 14.344900 12.313400
77   1  0.7495 20.397800  7.927480 26.417400
78   1  0.7388 18.488400  7.644950 12.740600
79   1  0.8003 20.332300 16.356200 26.956100
80   1  0.7241 18.192600 15.139800 14.049900
81   1  0.6646  0.796499  4.716970 27.174600
82   1  0.6217  0.549357  2.719370 12.762500
83   1  0.6716  1.010710 13.463400 26.068100
84   1  0.7159  3.510010 13.355200 15.150600
85   1  0.7642 15.047700  5.265960  0.298145
86   1  0.6874 12.950700  3.521000 12.907100
87   1  0.7009 13.495600 12.782400  0.577023
88   1  0.6922 11.162800 10.057700 13.570800
89   1  0.6919  8.102830  2.788190 26.807000
90   1  0.5207  7.748130 17.529000 12.682800
91   1  0.6944  9.612610 11.373100 26.101200
92   1  0.7123  6.720590 11.133700 13.783900
93   1  0.6644 20.014400  3.322710 27.231100
94   1  0.6433 18.775600  2.852150 12.873600
95   1  0.7029 20.753400 12.334000 26.617300
96   1  0.8871 18.136300 11.531900 13.319400
97   1  0.7496 -2.277750  8.314930  6.565320
98   1  0.6979  0.775679  6.832740 22.162200
99   1  0.6676 -0.059046 16.752500  6.555400
100  1  0.6250  1.584660 15.978600 23.082400
101  1  0.6975 11.732700  6.177520  6.398780
102  1  0.4412 13.367700  7.343470 21.164300
103  1  0.6610 12.698000 16.086300  8.240750
104  1  0.5906 13.495200 16.505200 22.013500
105  1  0.6940  6.572230  7.622980  7.523100
106  1  0.7134  7.572410  8.249270 20.836400
107  1  0.6393  8.393280 15.541300  7.740880
108  1  0.5937  7.568100 16.345100 21.320600
109  1  0.5731 18.105800  8.481490  8.883450
110  1  0.7845 20.072200  7.667040 22.800900
111  1  0.6955 18.896000 14.541900  8.271340
112  1  0.6860 16.714600 18.138100 20.307400
113  1  0.7043 -0.808799  3.525640  8.747990
114  1  0.5919  2.186920  3.959540 23.876600
115  1  0.6212  0.389560 10.931700  9.012250
116  1  0.8578  1.863630  9.986330 20.031200
117  1  0.6227 12.455300  4.538760  9.497970
118  1  0.5868 13.718500  3.754500 21.783100
119  1  0.7588 13.993100 10.536100  6.432180
120  1  0.6708 13.268500 11.087700 21.749700
121  1  0.5005  7.533800  3.274470  9.491400
122  1  0.7614  9.291530  2.587590 20.502800
123  1  0.7221  5.855930 13.138200  7.094500
124  1  0.7731  7.365120 12.348200 21.418800
125  1  0.8407 19.882600  3.691800  7.705240
126  1  0.6949 20.468700  3.184620 22.697500
127  1  0.6041 19.832700 11.160100  7.505770
128  1  0.7791 19.545700 11.244600 22.203200
129  2 -0.5505  6.797500  6.308330 10.820800
130  2 -0.5094  8.289880  5.656060 22.903500
131  2 -0.5066  4.894990 15.227700  9.520220
132  2 -0.7529  8.150120 14.033600 23.955500
133  2 -0.7049 18.352200  6.168540 10.215900
134  2 -0.8409 19.639500  5.554220 24.626400
135  2 -0.5961 17.732400 13.075700 10.897800
136  2 -0.6428 19.770700 13.885900 24.474500
137  2 -0.7797 -0.151804  5.322650 11.203000
138  2 -0.7432  1.037540  6.028680 24.833800
139  2 -0.5391  0.656773 13.699700 14.674300
140  2 -0.5799  1.812980 13.431500 23.018600
141  2 -0.7308 12.308700  6.876430 11.409100
142  2 -0.6494 14.725300  6.025030 24.691100
143  2 -0.4347 12.928900 15.023000 11.843600
144  2 -0.7060 13.365500 13.924700 24.893400
145  2 -0.2129 19.951300  4.919790  3.361600
146  2 -0.5963  1.071410  7.238590 19.320300
147  2 -0.3435 14.582900 17.048700  4.887040
148  2 -0.2413 -0.227620 17.001200 16.554200
149  2  0.0007  6.593790  7.085210  3.273350
150  2 -0.0128 15.217100 10.396200 15.689000
151  2 -0.0524  6.657780  9.588560  0.818685
152  2 -0.5580  8.814590 10.374700 20.006400
153  2 -0.3783  2.669660 11.096200  0.867222
154  2 -0.3042 22.578400 11.264200 17.332800
155  2 -0.4108 20.854600 14.344100  1.453170
156  2 -0.5056  2.881860 10.100100 17.938900
157  2 -0.3907  3.604320 11.479100  4.397020
158  2 -0.1302 15.774100  8.362920 16.399600
159  2 -0.1878 11.620100 18.940900  3.529650
160  2 -0.3494  6.407820  1.657140 15.702600
161  2 -0.3162  5.432530 17.638000  7.319570
162  2 -0.6721  8.184540  2.097440 23.083100
163  2 -0.3128  6.253950 11.326700 10.225400
164  2 -0.6227  7.493570  9.572780 23.484100
165  2 -0.5721 17.883000 17.327200 11.745900
166  2 -0.7274 20.400100 18.284100 24.991500
167  2 -0.5700 19.751000 10.066900 11.622100
168  2 -0.7988 19.883700  9.665000 24.445600
169  2 -0.6109  0.297418 17.209500 10.561100
170  2 -0.6940  1.088690 18.369500 25.290400
171  2 -0.5480  0.568472  6.554960  7.545530
172  2 -0.6002  1.681710 10.044200 22.755600
173  2 -0.7297 12.590500  1.310920 10.418600
174  2 -0.7813 14.457000 18.418400 23.403100
175  2 -0.4506 13.130000 12.432200  9.627670
176  2 -0.8209 12.116900 10.954200 24.016800
177  2 -0.3277  4.338290  5.792960  3.473590
178  2 -0.2463 -2.325920  3.424870 17.347600
179  2  0.0160  5.314460  9.525700  2.526630
180  2 -0.1967 15.375700 17.006400 16.410000
181  2 -0.4662 15.648400  5.726010  2.740950
182  2 -0.5379 11.733300  4.509080 15.684000
183  2 -0.0170 18.410700 12.664500  3.258040
184  2 -0.2981 16.522500 13.048700 18.666200
185  2 -0.5159 14.673500 12.528900  4.515740
186  2 -0.1487  3.624830  5.507130 15.134000
187  2 -0.0127  6.751110  3.402760  2.784990
188  2 -0.1292  2.111880  3.416280 20.556800
189  2 -0.4572 -2.600990  7.616180  2.624690
190  2 -0.4405 14.209600  9.958200 19.247400
191  2 -0.2219 20.565400 14.174100  5.666900
192  2 -0.2782 10.532200  2.027540 17.771100
193  2 -0.3618  7.398590  4.049540  6.559040
194  2 -0.5348  0.190787  5.719170 15.628600
195  2 -0.6271  1.613470 13.353600 10.635700
196  2 -0.0431 -1.987690 14.650600 18.770300
197  2 -0.6102 12.725900  6.607190  1.018200
198  2 -0.5293 15.398700  6.051470 19.563100
199  2 -0.6141 10.563400 13.351400  6.955990
200  2 -0.3758 12.506500 13.629100 20.675400
201  2 -0.4143 -0.116928  9.646760  4.491630
202  2 -0.3964  8.123020  4.558020 16.614800
203  2 -0.1333  5.193770 18.353000  3.449890
204  2 -0.6662  7.274440 14.231300 19.151100
205  2 -0.6107 18.656500  6.266520  7.119800
206  2 -0.4858 21.010300  5.756000 20.997400
207  2 -0.1932 18.106400  3.164410  4.938280
208  2 -0.1729 19.179200 14.100600 17.605000
209  2 -0.7904 21.865800  7.619770 13.506400
210  2 -0.6619 -1.573340  7.977500 25.692900
211  2 -0.8157 22.504700 15.719500 13.245400
212  2 -0.6887 -0.995001 15.385300 26.316300
213  2 -0.6374  8.463270  8.502540 13.513700
214  2 -0.5548 11.393500 11.200600  1.544900
215  2  0.0338 10.472300 12.601900 18.128100
216  2 -0.5054 10.022700 17.268000 27.371100
217  2 -0.8912 21.930800  2.856480 12.750400
218  2 -0.6329 -1.682320  3.641270 26.146400
219  2 -0.6377 -1.622100 11.544400 12.011700
220  2 -0.8910 -0.718325 11.613000 25.719500
221  2 -0.7609  9.971750  2.530020 13.094500
222  2 -0.4803 11.489000  3.729940 25.784100
223  2 -0.4665  9.161410 11.121200 15.835100
224  2 -0.5340  7.999130 12.906500  0.920537
225  2 -0.6629  2.437550 14.868200  0.622666
226  2 -0.3405 -1.841680 15.715500 22.085000
227  2 -0.5608  1.273180  3.262540  2.817950
228  2 -0.3944 20.011000  9.049580 20.399600
229  2 -0.3551 15.043000  1.873970 26.944000
230  2 -0.4450 10.669800 15.635400 16.082500
231  2 -0.5571 14.953700  8.874230  4.672920
232  2 -0.2547 12.859300 12.234400 14.191700
233  2 -0.5020  6.191720 14.985900  5.130810
234  2 -0.7860  7.322210 14.409400 15.272400
235  2 -0.3139  9.094120  5.789870  0.930732
236  2 -0.1643  3.881410  7.384950 14.080500
237  2 -0.1037 16.964900 18.363300  1.296280
238  2 -0.4431 18.635200 17.675500 15.457300
239  2 -0.4228 20.765000 11.034800  1.437430
240  2 -0.3649 18.900800  9.315530 15.093600
241  2 -0.5044  3.515360  8.680450  7.528350
242  2 -0.5254  4.371640  7.956640 20.991900
243  2 -0.4561  2.930400 15.408300  5.722760
244  2 -0.8280  4.695930 15.051500 21.870300
245  2 -0.5839 13.479400  7.966900  7.976190
246  2 -0.6790 17.322700  7.754280 22.281600
247  2 -0.6521 15.870600 16.258400  8.999170
248  2 -0.5084 18.468400 16.172900 21.563000
249  2 -0.5703  2.002560  2.300880  8.039060
250  2 -0.5264  4.827870  3.524690 22.475100
251  2 -0.6747 -2.700850 10.029700  8.742360
252  2 -0.5234  4.757330 11.633300 20.408200
253  2 -0.6609 15.152800  4.789120  9.370630
254  2 -0.7428 17.612400  3.177860 22.070900
255  2 -0.7256 16.375500 11.227100  7.990500
256  2 -0.7538 16.483300 11.478300 22.363400
257  2 -0.0823  8.638200  9.762730  3.230550
258  2 -0.5001 10.988500  4.747520 19.551300
259  2 -0.5609  4.829630  3.619240  0.360290
260  2 -0.1605  0.224441 12.713900 19.281900
261  2 -0.3476 22.252000 16.918900  3.858370
262  2 -0.3392 18.011900  5.393220 14.959800
263  2 -0.0100 19.246700 15.717900  4.372880
264  2 -0.7340 19.955700 13.176200 14.349500
265  2 -0.0005  8.049020  1.445500  3.932170
266  2  0.0028  3.162120  2.984730 17.413200
267  2 -0.4108 20.068400 18.334400  1.488430
268  2 -0.1611 20.012300  1.727770 19.539300
269  2 -0.4070 14.571900  9.805340  0.655030
270  2 -0.2716 17.587500  3.557890 18.143400
271  2 -0.5661 11.508200  9.724200  4.759930
272  2  0.0864 13.631800 13.055600 17.296700
273  2 -0.4693 21.952400  1.573550  7.511490
274  2 -0.3028 -0.812075  2.746980 21.416700
275  2 -0.5653 -0.345742 13.720100  5.688900
276  2 -0.3854 -2.638840 12.140800 21.664700
277  2 -0.5341  9.844140  8.288040  8.754060
278  2 -0.5709 13.588000  1.413090 19.915100
279  2 -0.6469  9.598000 12.348400 12.416700
280  2 -0.5044  6.566740  8.713270 17.553700
281  2 -0.5824 -2.797160  5.645790  8.300670
282  2 -0.4302 -1.471180  8.519480 21.082800
283  2 -0.5430 21.265500 15.109200  9.359380
284  2  0.0012 21.012800 16.705100 18.951800
285  2 -0.4255  7.786570 10.965400  6.929380
286  2 -0.6671 10.153600  7.813990 25.592300
287  2 -0.6535  9.544300 15.005700  9.932560
288  2 -0.6433 10.456500 16.589700 21.444300
289  2 -0.3755 10.335600  1.954090  6.793810
290  2 -0.1925  5.800840  3.188100 18.916900
291  2 -0.3301  9.424540  6.186100  4.919730
292  2 -0.5160  3.098550 15.385400 16.982900
293  2 -0.5449 18.407900  1.671060  8.744390
294  2  0.0598 -0.794729 17.578000 19.228300
295  2 -0.4521 21.152800 10.586200  4.933830
296  2 -0.3143 22.138300  7.801000 17.367700
297  2 -0.4825  0.615337 16.500500  3.009370
298  2 -0.4065  2.178000 17.722000 20.839900
299  2 -0.4929 -1.815860  4.610890  4.474120
300  2 -0.6488  0.923522  9.692560 14.707900
301  2 -0.6305 13.334500  4.168000  6.291820
302  2 -0.0667 13.730500 15.936400 17.388400
303  2 -0.3899 12.518700 15.055800  3.288650
304  2 -0.3890 11.810000  8.951230 16.582600
305  2 -0.6508  6.160450  2.499050 11.701700
306  2 -0.3276  2.945940  7.218380  0.731236
307  2 -0.4194  4.363540 10.562900 15.195900
308  2 -0.5459  5.588220 12.479400 26.144900
309  2 -0.5841 14.824700  5.214230 13.586800
310  2 -0.2849 17.654200  8.430340  0.532464
311  2 -0.4841 16.191500 13.173000 13.711300
312  2 -0.3158 16.646700 12.357300 26.572900
313  2 -0.4918  2.607550  9.686100 10.786500
314  2 -0.4898  3.874070  7.928910 24.309400
315  2 -0.5038  4.878880 16.051500 13.501400
316  2 -0.7603  6.415760 17.596900 26.894100
317  2 -0.5828 15.592700  9.250900 12.652200
318  2 -0.0382 17.352600 10.730900  2.529590
319  2 -0.4770 14.701300  1.407110 13.170700
320  2 -0.5015 16.723700 15.921000 26.310300

