Generated by pymatgen.io.lammps.data.LammpsData

360  atoms

  2  atom types

0.000000 16.677463  xlo xhi
0.000000 21.699897  ylo yhi
0.000000 28.493178  zlo zhi

Masses

1  208.9804
2   78.9600

Atoms

1    1  0.8062  1.148150 12.909400 20.497200
2    1  0.7787  3.755010 16.244700 20.692700
3    1  0.8104  1.586640  5.442880 20.392700
4    1  0.8008  3.923150  8.979480 20.237100
5    1  0.8344  6.072200 12.891400 20.500300
6    1  0.7590  8.263570 16.398600 20.262500
7    1  0.7318  1.826170 20.414600 20.665300
8    1  0.8266  4.063630  2.196670 20.384700
9    1  0.7315  6.010160  5.549840 20.058300
10   1  0.8516  8.093530  9.549160 20.517100
11   1  0.7544 10.520100 13.093100 20.212500
12   1  0.8737 12.602700 16.420700 22.924200
13   1  0.9060  6.095690 19.885500 20.453900
14   1  0.7785  7.940030  2.061820 19.941000
15   1  0.6758 10.058300  5.613120 20.588500
16   1  0.6623 11.781100  9.482820 20.158200
17   1  0.8241 13.960400 12.902800 20.296400
18   1  0.8592 16.620700 16.440800 20.505400
19   1  0.9087 10.495700 20.233500 20.011700
20   1  0.7282 12.155100  2.728180 20.484200
21   1  0.7850 14.392100  5.920060 20.626300
22   1  0.7889 16.241500  9.478250 20.876000
23   1  0.8072 14.534300 20.351900 20.100600
24   1  0.8298  0.360582  1.964860 20.222700
25   1  0.7872  1.895750 12.948000 27.075800
26   1  0.7882  4.244280 16.800200 26.717700
27   1  0.8000  1.770370  5.643300 26.536000
28   1  0.7679  4.073630  9.411200 27.062500
29   1  0.8933  6.388770 13.311100 26.637800
30   1  0.8125  8.347540 16.541500 26.734900
31   1  0.8076  2.047660 20.067300 26.202900
32   1  0.7726  4.453270  2.320320 25.563800
33   1  0.8441  5.983600  6.068150 26.445100
34   1  0.8099  7.842540  9.818500 26.362800
35   1  0.7722 10.232700 13.036200 26.669100
36   1  0.7341 12.486300 16.509300 26.571300
37   1  0.7809  6.030560 20.182900 26.083000
38   1  0.8040  8.331660  2.205320 25.900100
39   1  0.7568  9.839040  6.045350 26.414200
40   1  0.7503 11.840800  9.157230 26.089100
41   1  0.6924 14.287800 12.665500 25.999600
42   1  0.9144 16.606000 16.696300 26.952000
43   1  0.7413 10.337000 19.948500 26.528700
44   1  0.7546 12.062700  1.383820 26.042000
45   1  0.7911 14.457400  5.660510 26.345500
46   1  0.7063 16.431700  8.947260 26.010600
47   1  0.7956 14.809200 20.027000 26.647000
48   1  0.7048  0.226381  2.460870 26.702200
49   1  0.7809  2.201200 15.139800  1.729380
50   1  0.8239  4.158320 18.653300  1.441470
51   1  0.7709  2.124930  7.864250  1.190600
52   1  0.7867  3.994140 11.853900  1.711350
53   1  0.7393  6.344920 15.331300  1.698590
54   1  0.8611  8.291260 18.935500  1.485400
55   1  0.8262  1.942220  0.477528  1.295720
56   1  0.7902  4.696570  4.883230  1.306480
57   1  0.8022  6.057490  7.871280  1.728150
58   1  0.8953  7.777400 11.529700  1.699730
59   1  0.8657 10.135300 14.495200  1.756400
60   1  0.7933 12.263200 18.354900  1.877190
61   1  0.7758  5.875130  0.901425  0.368280
62   1  0.7641  8.463730  4.356340  1.187270
63   1  0.7904 10.457700  7.907310  0.548533
64   1  0.8084 12.292600 11.153000  1.113310
65   1  0.8233 14.195000 14.777500  1.986150
66   1  0.9552 16.311500 18.762300  1.529020
67   1  0.7210 10.226900  0.820629  0.711507
68   1  0.8530 13.145600  4.171990  1.960260
69   1  0.8020 14.493000  7.751670  1.231280
70   1  0.7346 16.089200 11.502500  1.177070
71   1  0.7505 13.940800  1.071380  0.664979
72   1  0.7164  0.492124  3.566210  1.447640
73   1  0.6244  2.166920 15.833200  7.831940
74   1  0.7036  3.656240 18.813200  6.806170
75   1  0.8090  2.265910  7.593630  7.276040
76   1  0.8191  4.102990 11.467500  7.408240
77   1  0.8156  5.985600 15.066600  7.213310
78   1  0.8048  8.602910 18.501700  7.062650
79   1  0.8252  2.221670  0.984703  6.717720
80   1  0.7943  4.338270  4.106480  7.406230
81   1  0.7682  6.382370  7.575820  7.541350
82   1  0.7823  8.020160 11.317500  7.219050
83   1  0.8809 10.823600 14.551400  7.604830
84   1  0.6877 12.273100 19.290300  7.373260
85   1  0.7728  5.966620 21.611400  7.280550
86   1  0.8060  8.347000  4.446660  7.176050
87   1  0.8213 10.318500  8.237090  7.213510
88   1  0.9284 12.434000 11.102500  4.890980
89   1  0.8472 14.696400 15.293100  7.264520
90   1  0.8141 16.393700 19.393600  7.480190
91   1  0.8853  9.771590  0.824106  7.233280
92   1  0.7668 12.040400  4.369530  7.642850
93   1  0.7659 14.536700  7.474660  7.276220
94   1  0.8625 15.938000 11.578400  7.292760
95   1  0.7938 14.202000  0.822602  7.312040
96   1  0.7219 16.665000  4.097750  6.588300
97   1  0.6674 16.537800 13.975300 10.818500
98   1  0.6436  1.417640 17.217700 11.444000
99   1  0.7356  0.046546  6.340500 10.561700
100  1  0.6937  2.543800  9.976270 11.146900
101  1  0.7654  3.776070 13.868700 11.525900
102  1  0.8190  6.341790 17.351800 11.126500
103  1  0.8495 16.466100 21.641200 11.371600
104  1  0.8944  2.083020  3.038340 10.286100
105  1  0.7792  3.695640  6.739030 10.694200
106  1  0.7184  6.238600 10.090000 11.045600
107  1  0.7712  7.896490 14.043000 10.658900
108  1  0.7386  9.868000 17.382200 10.237700
109  1  0.8356  3.619350 20.576900 10.581400
110  1  0.8346  5.978130  3.168180 11.281100
111  1  0.7724  8.505000  6.628270 10.949000
112  1  0.8135 10.687700 10.576800 11.129600
113  1  0.8383 12.409100 13.921700 11.647400
114  1  0.7668 14.512000 17.170100 11.497800
115  1  0.9300  8.423320 20.932700 10.638800
116  1  0.6412 10.381600  3.222810 10.359500
117  1  0.7002 12.510500  6.617590 10.681700
118  1  0.8007 14.873600  9.724200 11.515500
119  1  0.8132 12.379200 20.959600 10.558600
120  1  0.7374 13.768500  2.628580 10.998200
121  1  0.8488 16.350000 13.356200 17.033800
122  1  0.8451  1.339970 17.223600 16.850600
123  1  0.8602 16.213000  6.747670 17.385300
124  1  0.7059  1.941760  9.984250 17.391900
125  1  0.8482  3.988180 14.283100 17.906300
126  1  0.8092  5.913550 17.675400 17.311000
127  1  0.6613 16.498400 21.063600 16.908500
128  1  0.8631  1.988520  2.873160 14.648400
129  1  0.6717  4.123230  5.808310 16.974500
130  1  0.8295  5.726060 10.474300 17.049800
131  1  0.8630  8.375130 14.447900 17.016200
132  1  0.7483 10.084900 17.523300 17.330100
133  1  0.8263  3.700740 21.047900 17.145600
134  1  0.8746  6.159170  2.517730 15.676100
135  1  0.7736  7.963080  6.954310 16.695300
136  1  0.7745 10.217500 10.869400 17.351300
137  1  0.9150 12.444700 14.116200 16.907900
138  1  0.8284 14.176600 17.758300 17.438400
139  1  0.8031  8.031250 20.710200 16.734600
140  1  0.7953 10.649400  2.964680 16.818800
141  1  0.7699 11.613200  7.515370 17.485200
142  1  0.8771 14.229500 10.195800 17.363700
143  1  0.7500 12.678700 21.190600 16.919700
144  1  0.8475 14.026500  3.238800 15.061900
145  2 -0.7593 16.429100 14.395500  0.085801
146  2 -0.7779  1.853500 17.844500 28.264700
147  2 -0.8178  0.018837  5.966720 28.434500
148  2 -0.8896  1.622900 10.379600 28.011600
149  2 -0.8469  4.347550 13.735500 28.165400
150  2 -0.8807  6.242270 17.833900 28.208700
151  2 -0.7884  0.092013 20.781100  0.038922
152  2 -0.8076  2.644210  3.279600 28.108900
153  2 -0.9415  3.745570  6.469820 28.122900
154  2 -0.8392  5.815690 10.700500 28.357900
155  2 -0.9024  8.072270 13.748300  0.110767
156  2 -0.8360 10.109700 17.498900 28.328200
157  2 -0.8499  3.584270 20.794800 28.141100
158  2 -0.8432  6.452850  3.422830 27.682800
159  2 -0.8697  7.453240  7.581760 28.195800
160  2 -0.8471 10.149000 10.436100 28.348900
161  2 -0.8673 12.043300 13.896700  0.214397
162  2 -0.8077 14.509400 17.674100 28.230600
163  2 -0.8406  7.857340 21.157300 27.828300
164  2 -0.8071 10.211700  3.161390 27.672000
165  2 -0.7990 12.266200  6.525330 27.841400
166  2 -0.8673 14.294600  9.851140 27.852200
167  2 -0.8562 12.526800 20.629800 27.999100
168  2 -0.8130 14.211600  3.451400 28.120700
169  2 -0.4127  2.145180 15.042300 25.679900
170  2 -0.3224  3.727130 18.403900 24.470800
171  2 -0.2697  2.070230  7.474020 24.424600
172  2 -0.2366  3.935410 11.426200 25.014700
173  2 -0.4298  5.730970 15.219800 25.198200
174  2 -0.3804  8.064240 18.760500 24.947300
175  2 -0.3418  1.726040  0.593916 24.406600
176  2 -0.3226  4.137950  4.522300 24.434400
177  2 -0.3113  5.758340  8.568640 24.918300
178  2 -0.4193  8.296050 12.154900 24.986800
179  2 -0.5403 10.413600 15.657400 25.136800
180  2 -0.3988 12.847200 19.454500 24.619500
181  2 -0.4206  6.022340  0.741878 24.283900
182  2 -0.4472  7.898290  5.276530 24.985800
183  2 -0.4006  9.265670  8.134320 24.680300
184  2 -0.3123 11.625100 11.618200 24.438600
185  2 -0.5481 14.669300 15.503100 25.280000
186  2 -0.3798  0.319088 18.127200 25.006400
187  2 -0.4220  9.946390  0.574283 24.600000
188  2 -0.2956 11.857100  4.363340 24.793300
189  2 -0.4368 14.104100  8.196300 24.778300
190  2 -0.3170 15.780600 11.610000 23.934800
191  2 -0.4350 15.119500  1.332850 25.438600
192  2 -0.3354  0.198099  4.068950 24.568600
193  2 -0.4140 16.062200 14.403700 22.209000
194  2 -0.3901  1.914710 17.920800 22.065300
195  2 -0.4179 16.529100  6.914850 22.232200
196  2 -0.3027  2.235820  9.946430 22.297500
197  2 -0.3404  3.844840 13.120800 21.980600
198  2 -0.3773  5.961610 17.740500 22.002600
199  2 -0.4444 16.522300 21.431600 21.842900
200  2 -0.4304  1.968620  3.097200 21.997800
201  2 -0.4413  3.762410  6.665270 21.502300
202  2 -0.2237  6.327820 10.707000 22.367500
203  2 -0.4204  8.660060 14.446700 21.922000
204  2 -0.2866 10.317800 18.575200 22.206100
205  2 -0.3756  4.234970 21.641400 22.063700
206  2 -0.3857  6.019480  3.142490 21.952400
207  2 -0.2716  7.564020  6.823890 22.174800
208  2 -0.3995  9.816750 11.186300 21.945200
209  2 -0.4133 11.938900 13.884600 22.555000
210  2 -0.5055 14.239200 17.970400 21.293200
211  2 -0.3270  8.054410 21.148300 21.551500
212  2 -0.3651  9.817680  2.498480 22.112900
213  2 -0.4242 12.170300  6.544290 22.189300
214  2 -0.3748 13.686100 10.227600 22.107500
215  2 -0.3241 12.557400  0.198216 21.764400
216  2 -0.2610 14.650100  3.099320 22.174400
217  2 -0.7193  1.847330 12.251000  9.398930
218  2 -0.8520  4.337720 15.923400  9.915650
219  2 -0.8984  2.241650  5.268140  8.799200
220  2 -0.8674  4.447300  8.705360  8.860670
221  2 -0.8355  5.922000 12.576300  8.934770
222  2 -0.8068  7.925020 16.202900  8.883850
223  2 -0.7888  1.937690 20.617900  8.667150
224  2 -0.7761  3.882850  1.739320  8.739200
225  2 -0.7931  6.147190  5.487510  9.412760
226  2 -0.8089  8.391430  9.002750  9.673630
227  2 -0.7457 10.312600 12.890300  9.593760
228  2 -0.7306 12.864100 16.102300  9.740900
229  2 -0.7919  6.283370 19.490100  8.977000
230  2 -0.7807  8.027320  2.113290  8.606520
231  2 -0.9192 10.160100  5.963520  8.653240
232  2 -0.6990 12.457600  9.365820  9.055670
233  2 -0.6726 14.731400 12.673400  9.429510
234  2 -0.8617 16.421100 16.995500  8.731180
235  2 -0.9522  9.960800 20.543700  8.841010
236  2 -0.9310 12.025700  2.020670  8.623680
237  2 -0.8084 14.632700  5.267250  9.512030
238  2 -0.7183 16.353500  9.273060  8.779190
239  2 -0.8308 14.565500 20.300100  9.286700
240  2 -0.6936 16.609600  1.953590  8.999890
241  2 -0.3912 16.651900 14.156900  6.050540
242  2 -0.3577  1.588580 18.131500  5.442660
243  2 -0.3777  0.156732  6.881170  5.591390
244  2 -0.2842  1.806860 10.222400  5.942980
245  2 -0.2867  3.751550 14.050300  5.378340
246  2 -0.4166  6.472620 17.326400  5.762160
247  2 -0.3003 16.355300 21.411300  5.315410
248  2 -0.3829  1.805750  2.622830  4.535770
249  2 -0.4347  4.001050  6.189010  5.760140
250  2 -0.4073  5.990270 10.176700  5.751530
251  2 -0.4612  8.687390 13.408800  6.218740
252  2 -0.5862 10.758000 16.921900  6.697870
253  2 -0.4439  3.879840 21.181900  5.408560
254  2 -0.2931  6.116390  3.452730  5.432990
255  2 -0.3338  8.625930  6.433650  5.508840
256  2 -0.3598  9.739610 10.142500  5.169170
257  2 -0.5346 13.043000 13.535000  6.223030
258  2 -0.3232 14.301500 18.022700  5.445040
259  2 -0.3537  8.116060 21.484000  5.540100
260  2 -0.2398  9.669980  2.902050  5.187520
261  2 -0.4527 12.132000  6.844920  6.052240
262  2 -0.3516 14.159600  9.314520  5.111190
263  2 -0.3557 12.208000 21.650700  5.585390
264  2 -0.3863 13.837500  3.057850  5.686760
265  2 -0.3967  1.873120 13.275900  3.242850
266  2 -0.4714  4.081300 16.727300  3.295150
267  2 -0.3043  2.013680  5.547380  3.220990
268  2 -0.4124  4.016000  9.361930  3.067850
269  2 -0.4368  6.068740 12.630200  3.403500
270  2 -0.4382  8.263340 16.486300  3.085040
271  2 -0.3081  1.769380 20.168800  2.998330
272  2 -0.2849  4.083220  1.479400  2.703160
273  2 -0.4073  6.620930  5.473930  3.076890
274  2 -0.3631  8.606080  9.317740  2.557320
275  2 -0.4998 10.727200 12.151700  3.087280
276  2 -0.4151 12.181100 15.604500  3.595800
277  2 -0.3010  6.501040 20.073900  2.903290
278  2 -0.3399  7.587810  1.869090  2.273540
279  2 -0.2971 10.125800  5.882020  2.798660
280  2 -0.4527 12.386400  8.662990  2.507110
281  2 -0.5840 14.366200 11.939800  3.048020
282  2 -0.4391 16.368900 16.401400  2.653260
283  2 -0.3763 10.099200 20.065400  2.983560
284  2 -0.4415 12.098300  1.914250  2.499160
285  2 -0.3284 14.490900  5.459540  3.630320
286  2 -0.3077 16.562600  8.943190  2.917340
287  2 -0.3297 14.416900 20.538700  2.573780
288  2 -0.3836 15.806100  1.627850  2.824820
289  2 -0.9276  1.902770 14.831700 19.112800
290  2 -0.8443  4.147630 18.760200 18.944100
291  2 -0.8855  1.727610  7.491890 18.871700
292  2 -0.8117  4.450250 11.563200 19.337400
293  2 -0.9275  6.146600 15.483400 18.591200
294  2 -0.9120  8.436230 18.940700 18.903600
295  2 -0.8071  2.564600  1.113720 18.407300
296  2 -0.7397  5.336650  3.652120 18.194700
297  2 -0.7922  6.426150  8.223110 18.955200
298  2 -0.7998  7.917280 11.732000 18.404500
299  2 -0.9225 10.441000 15.141800 18.451700
300  2 -0.8905 12.378000 19.341400 18.607400
301  2 -0.7199  5.875650  0.203763 18.557200
302  2 -0.6828  8.253500  3.749100 17.901800
303  2 -0.9145  9.536860  8.047260 18.948000
304  2 -0.9683 12.500900 11.801500 18.342000
305  2 -0.7115 14.335100 14.979700 18.824400
306  2 -0.9026 16.435200 18.206300 18.560400
307  2 -0.8041 10.395900  0.575502 18.218200
308  2 -0.7789 12.137600  4.737610 18.588900
309  2 -0.8832 14.417600  8.044470 19.077500
310  2 -0.9555 16.050900 11.654400 19.156000
311  2 -0.7671 14.819300  1.168300 18.706900
312  2 -0.6683  0.173064  4.101980 18.482500
313  2 -0.4597  2.688260 12.345900 16.401500
314  2 -0.4371  3.780360 16.672100 16.086800
315  2 -0.3533  0.022641  4.974440 15.329700
316  2 -0.4074  3.933410  8.467990 15.577000
317  2 -0.2653  6.257950 12.843900 15.730200
318  2 -0.3823  7.739590 16.419300 15.344900
319  2 -0.3757  1.602710 19.764500 15.258100
320  2 -0.4592  3.981420  1.134410 14.741200
321  2 -0.4593  5.566250  5.000380 14.958200
322  2 -0.3516  8.593810  9.493880 15.473000
323  2 -0.4011 10.131700 13.228000 15.547300
324  2 -0.2608 11.984500 16.837400 15.040600
325  2 -0.3150  6.192850 20.347800 14.957800
326  2 -0.2596  8.409250  2.150990 14.503100
327  2 -0.3234 10.377100  5.577460 15.294400
328  2 -0.4217 12.326600  9.348650 15.722700
329  2 -0.4137 14.223000 12.817500 15.637700
330  2 -0.3997 15.643900 15.865100 15.878400
331  2 -0.3132  9.708110 20.050900 15.090300
332  2 -0.3655 11.754600  1.656350 14.437600
333  2 -0.3151 13.688200  6.045050 16.074400
334  2 -0.3785 16.167400  9.335640 15.749700
335  2 -0.3637 14.561100 19.658900 15.098700
336  2 -0.4775 16.419200  1.340260 14.595400
337  2 -0.3806  2.245010 14.958100 13.291800
338  2 -0.3785  4.059140 18.788700 12.505900
339  2 -0.3456  1.951500  7.641860 12.938300
340  2 -0.3644  3.569130 11.485700 13.070300
341  2 -0.1909  5.840320 14.923500 13.442800
342  2 -0.4354  8.492550 18.875200 12.084000
343  2 -0.4991  2.377670  0.754395 11.822100
344  2 -0.5557  3.590220  4.427480 12.089600
345  2 -0.3844  5.924660  7.764080 12.651600
346  2 -0.3212  8.132210 12.436100 12.754300
347  2 -0.4070 10.255400 15.308800 12.291500
348  2 -0.2927 12.094400 18.390200 12.327000
349  2 -0.4065  6.303780  0.804594 11.953400
350  2 -0.3243  8.407400  4.109130 12.901500
351  2 -0.3957 10.910000  8.100760 12.539300
352  2 -0.3299 12.401700 11.767700 13.139100
353  2 -0.3850 15.094300 14.961500 13.198600
354  2 -0.3910 16.574000 18.778600 12.923500
355  2 -0.4248 10.183200  0.567309 11.830600
356  2 -0.4752 13.450500  4.466120 12.688900
357  2 -0.3280 15.316400  7.346580 12.714000
358  2 -0.3624 16.467200 11.263200 12.718700
359  2 -0.4498 13.828200  0.077384 12.484400
360  2 -0.4475 16.573400  3.502470 11.873900

