Generated by pymatgen.io.lammps.data.LammpsData

320  atoms

  2  atom types

0.000000 24.637781  xlo xhi
0.000000 17.058433  ylo yhi
0.000000 27.370788  zlo zhi

Masses

1  208.9804
2   78.9600

Atoms

1    1  0.6739 -0.970759  2.110820  3.668640
2    1  0.6170 -0.188703 17.628500 15.582200
3    1  0.5620 -0.003290 10.212600  2.195380
4    1  0.7082 21.817700  9.271570 15.059400
5    1  0.6362 10.724300  5.290250  2.770360
6    1  0.6387  7.104280 16.168400 16.901500
7    1  0.6621 12.291300 13.569300  4.119650
8    1  0.6915  8.855020  7.749010 16.165000
9    1  0.6310  1.986420  5.965790 10.369500
10   1  0.7762  2.805550  4.608690 26.216500
11   1  0.7511  1.259680 12.885700  7.854040
12   1  0.7371  3.901070 15.779700 23.723900
13   1  0.6583 15.392900  5.415640 12.031000
14   1  0.7731 16.467900  4.709630 24.742800
15   1  0.7099 15.947700 14.809700 12.075000
16   1  0.5600 16.034200 15.104600 25.769600
17   1  0.6460  3.188190  3.218210  5.372850
18   1  0.7653  4.004450  7.365560 18.321300
19   1  0.5807  5.475940 15.038000 26.957600
20   1  0.6460  2.737170 13.579400 19.054500
21   1  0.6335 15.789400  5.911910  5.941100
22   1  0.6677 17.995300  4.611670 18.480900
23   1  0.6603 16.169100 14.094200  7.312200
24   1  0.6498 16.343600 15.331000 20.940000
25   1  0.7484 20.954200 17.930300 11.153800
26   1  0.6139 -1.179050 17.108900 23.895700
27   1  0.6948 -1.836670  9.063910 10.351100
28   1  0.7046 -2.112790  9.692380 24.162300
29   1  0.6365  9.708030  1.386340 11.464300
30   1  0.6862  9.689350 17.601500 22.880800
31   1  0.6246  8.354300 12.581300  9.557380
32   1  0.4989 11.049900  9.461930 22.585500
33   1  0.6574 -0.744705  7.121350  3.509770
34   1  0.6243 20.653700  4.909020 14.965400
35   1  0.5856 -1.017370 15.272200  2.885840
36   1  0.6270 -1.079380 14.171100 15.792700
37   1  0.6006 12.146700  7.617340  3.815260
38   1  0.6554  9.440030  2.313250 16.604000
39   1  0.7225  8.636640 16.020800  4.930320
40   1  0.5766  6.963340 11.211900 17.697800
41   1  0.6308 20.875900  4.848880 10.713800
42   1  0.7425 -1.662170  6.099250 22.842900
43   1  0.7154 20.773400 13.958500 11.691700
44   1  0.6626 -0.094335 12.998500 23.886000
45   1  0.6575 10.199700  5.869310 11.002000
46   1  0.6351  9.986040  6.425340 23.956000
47   1  0.6059  8.983700 13.646900 12.924200
48   1  0.6019 10.170000 14.523500 24.708400
49   1  0.6366  2.215500 13.886900  4.023540
50   1  0.7772  5.728870  2.012120 22.776800
51   1  0.7668  2.643910  6.889200  6.170470
52   1  0.7449 -0.283168 10.166300 17.803300
53   1  0.7380 15.112400 18.115900  6.422750
54   1  0.7185 13.270000  3.601260 17.555100
55   1  0.6952 18.466800  8.928500  5.742580
56   1  0.7639 17.137700  7.565420 20.154400
57   1  0.7244  4.346070 17.435700  9.926720
58   1  0.6420  6.909010  2.626430 26.222800
59   1  0.7600  1.277510 11.250600 12.564100
60   1  0.8001  5.043490 11.616100 23.969800
61   1  0.7786 15.659100 18.194700 10.947900
62   1  0.6921 16.715900  1.371150 23.235900
63   1  0.7496 13.853200 11.818000 10.882800
64   1  0.6507 16.458600  9.587870 25.411900
65   1  0.6868  1.870000  9.741250 26.020700
66   1  0.6181 -0.092913  5.430760 13.198300
67   1  0.6851  4.243210 18.026300  2.038900
68   1  0.6951  1.767480 14.945000 13.392500
69   1  0.6992 12.493300  9.300860 26.371500
70   1  0.7082 11.902700  5.756170 14.902300
71   1  0.6137 12.635800 16.359000 27.074000
72   1  0.7075 12.910300 14.831100 14.129900
73   1  0.7013  7.117580  7.723110 25.073500
74   1  0.6358  8.185590  4.997510 12.499400
75   1  0.4381  7.987120 16.718000 27.464700
76   1  0.6860  4.896500 13.476300 11.501400
77   1  0.8233 20.703800  7.614140 27.494400
78   1  0.7092 18.651700  7.097810 12.612100
79   1  0.7917 19.765900 16.199500 25.507300
80   1  0.6907 18.225800 15.388000 14.840300
81   1  0.7048 -0.669188  5.422390 27.335700
82   1  0.7115  1.676010  2.739490 11.954100
83   1  0.5125  2.366690 12.240100  1.152280
84   1  0.5565  4.220370 13.470500 15.828500
85   1  0.6838 14.419800  6.771660  1.330190
86   1  0.5821 14.136900  2.582640 14.136200
87   1  0.5434 13.658300 13.021200  0.718876
88   1  0.7611 11.650800  9.801330 13.041000
89   1  0.6612 11.331800  3.285400 -0.033421
90   1  0.6425  7.300470 17.350500 13.331200
91   1  0.8064  8.400260 11.104500 25.074500
92   1  0.7946  7.348370  9.677130 13.608000
93   1  0.7012 21.270700  3.169180 25.948100
94   1  0.7610 18.223200  2.352600 14.163300
95   1  0.6726 21.888900 13.223600  0.576912
96   1  0.7759 18.406300 11.014100 12.722200
97   1  0.8008 -1.594960  9.024740  6.174100
98   1  0.7583  2.851230  6.457840 22.088800
99   1  0.7995  0.256237 16.448500  6.678020
100  1  0.6216  1.621080 17.204600 21.257000
101  1  0.8116 11.334200  7.180320  7.763790
102  1  0.5648 12.773300  7.732210 22.245000
103  1  0.8791 11.772100 14.599700  9.026980
104  1  0.5325 14.070600 15.774100 22.884500
105  1  0.8150  6.389880  7.499070  9.025720
106  1  0.7141  7.916700  7.249840 19.742100
107  1  0.6290  7.864080 15.898900  8.468870
108  1  0.5928  7.178980 15.785500 20.836400
109  1  0.6873 15.881200  7.445620  9.058010
110  1  0.6857 19.006400  7.359410 23.467500
111  1  0.6954 18.742100 15.578500  8.805310
112  1  0.7636 17.371400 17.640000 18.373000
113  1  0.6576 -0.625790  4.179100  7.884060
114  1  0.6280  0.840831  2.129200 24.151800
115  1  0.5868  1.950470  9.881630  9.113090
116  1  0.6438  0.381309  9.735500 21.231500
117  1  0.7796 12.196900  3.884280  9.146300
118  1  0.7594 15.309800  4.716740 21.241200
119  1  0.7357 14.386000 10.072000  6.024450
120  1  0.5522 14.156600 11.944800 23.785900
121  1  0.6772  6.841420  4.126300  8.803410
122  1  0.7992 10.171100  3.934260 20.659200
123  1  0.7274  4.953700 12.883200  7.258340
124  1  0.7076  8.915140 11.453900 20.884500
125  1  0.7104 20.672600  4.470730  7.331350
126  1  0.8754 20.342700  3.616220 21.747600
127  1  0.7252 20.236100 11.513800  8.930350
128  1  0.7853 18.909000 11.914100 24.038200
129  2 -0.4997  5.916420  6.221780 11.286000
130  2 -0.5635  7.750610  5.733190 21.523800
131  2 -0.8220  5.482040 15.030200  9.158460
132  2 -0.6761  7.787590 13.289900 24.071900
133  2 -0.6555 17.514000  3.268030 11.753100
134  2 -0.6868 19.945100  5.054200 24.367600
135  2 -0.7527 18.576800 12.722400 10.460500
136  2 -0.6660 18.161500 14.970900 23.862200
137  2 -0.7342 -0.304925  4.284350 10.632900
138  2 -0.6752  0.248375  4.510290 24.698700
139  2 -0.5779  0.587411 11.809300 15.603600
140  2 -0.4637  2.927360 13.241300 22.504000
141  2 -0.7045 12.664700  6.372670 10.835800
142  2 -0.6608 14.178800  7.538540 25.307000
143  2 -0.6189 13.547600 14.928900 11.119900
144  2 -0.9225 13.373000 14.178500 25.625600
145  2 -0.1904 19.331200  6.654580  2.601370
146  2 -0.2167  0.663925  6.062830 16.919900
147  2 -0.1966 12.471600 18.189400  3.380330
148  2 -0.4271  2.115430 18.561800 14.629400
149  2  0.1256  5.829870  9.256920  3.006730
150  2  0.0629 15.150900 10.669600 16.422800
151  2 -0.3353  6.247030  9.935720 27.046800
152  2 -0.5639  9.316750  9.341030 18.661400
153  2 -0.4085  5.257200 12.883900  1.558780
154  2 -0.3439 21.756200 10.953700 17.326700
155  2 -0.2322 19.709900 15.616700  1.171360
156  2 -0.5670  2.416250 10.347300 18.872300
157  2 -0.5503  2.908580 11.784600  5.899640
158  2  0.0569 14.796600  8.638030 16.925200
159  2 -0.0980 10.780200  1.817260  4.731660
160  2 -0.3324  6.122250 18.480200 15.825700
161  2 -0.3315  5.272380 17.581700  6.243590
162  2 -0.4717  8.723830  2.980520 23.863400
163  2 -0.5577  5.913380 10.875900 11.295600
164  2 -0.7403  8.210840  9.631430 22.633100
165  2 -0.7388 18.882700 15.909000 11.551100
166  2 -0.5492 19.516800 18.745100 24.110700
167  2 -0.6181 18.948700  8.888740 11.064400
168  2 -0.6327 20.224000  9.640590 25.359600
169  2 -0.3879  0.936724 17.399300 11.293100
170  2 -0.6182  3.474960 18.377900 25.046900
171  2 -0.6880  0.300168  7.510300  8.001120
172  2 -0.6552  0.487178  8.313720 23.766600
173  2 -0.4852 12.241400 18.426600 10.403600
174  2 -0.4711 13.429000 18.576400 24.148800
175  2 -0.4810 13.225600 12.956300  7.785410
176  2 -0.6946 11.291700 11.456900 25.083300
177  2 -0.1597  4.941440  6.339460  3.959880
178  2 -0.0441  0.185600  3.414670 19.651500
179  2 -0.0906  4.240710  9.880250  4.114070
180  2 -0.2947 16.204400 14.338100 17.848900
181  2 -0.3897 14.954500  4.116640  4.094400
182  2 -0.6013 10.948700  5.228910 17.282900
183  2 -0.0262 18.636600 13.034000  3.587150
184  2  0.0521 17.374700 11.404600 17.971700
185  2 -0.4822 15.337600 12.258400  4.766700
186  2 -0.1087  4.098340  5.142330 14.147500
187  2 -0.0962  8.196760  5.875800  5.088190
188  2 -0.0225  1.823040  3.374900 17.900700
189  2 -0.5231 -2.335530  4.718200  2.087380
190  2 -0.2248 13.939300 10.123900 20.271300
191  2 -0.3081 20.389300 13.874100  6.582420
192  2 -0.5669 10.642600  1.752720 19.174900
193  2 -0.6525  4.687660  5.221320  8.068480
194  2 -0.2588 -2.526540  4.390510 17.288800
195  2 -0.6511  1.917360 13.427200 10.883600
196  2  0.0317 20.556300 14.020400 20.876500
197  2 -0.6506 11.177100  6.861280  0.691013
198  2 -0.4851 14.097000  6.636850 19.872700
199  2 -0.3311 11.702800 16.638200  7.057070
200  2 -0.5050 13.093600 13.574600 21.706500
201  2 -0.6443  0.813188  9.144160  4.678500
202  2 -0.3793  5.675940  5.660400 17.426400
203  2 -0.4579  4.804060 15.718800  3.403910
204  2 -0.4417  9.365720 13.432400 18.632900
205  2 -0.6734 17.868200  6.531490  7.601660
206  2 -0.5414 21.037700  6.889840 21.162400
207  2 -0.1570 18.334100  2.538780  5.120590
208  2 -0.0014 18.568900 12.751100 18.441600
209  2 -0.7150 22.178300  7.530210 12.410800
210  2 -0.6326 -1.068100  8.142340 26.713700
211  2 -0.6136 -1.410370 15.087200 13.387100
212  2 -0.4971 21.337500 13.700300 25.199400
213  2 -0.7295  9.589260  7.395630 13.355500
214  2 -0.1018  9.168590 10.375100  2.140960
215  2  0.0490 12.041600 12.297800 17.322500
216  2 -0.6640 10.057100 17.813900 25.831300
217  2 -0.6607 22.296800  2.964120 12.719800
218  2 -0.5154  1.112900  3.038970  0.038380
219  2 -0.5593 -1.865860 11.482200 12.725400
220  2 -0.7877 -0.280699 11.744700 27.139500
221  2 -0.8090 10.415500  3.703650 13.624900
222  2 -0.4716 11.605600  4.407230 24.848200
223  2 -0.5919  9.281410 10.733500 14.928100
224  2 -0.0603  8.094200 11.705200  3.747430
225  2 -0.4470  2.603290 16.383800 27.518000
226  2 -0.5110 -0.923592 15.209100 22.250200
227  2 -0.7308  0.620256  4.620340  4.881060
228  2 -0.3400 18.650400  9.592070 20.941200
229  2 -0.3014 14.364800  2.771020 28.080200
230  2 -0.5503 10.855400 17.597800 14.774600
231  2 -0.6877 14.815600  8.403940  3.724520
232  2 -0.3821 13.043700 12.233200 14.521000
233  2 -0.4261  9.958310 13.468300  6.303960
234  2 -0.7425  7.273690 14.788100 14.763500
235  2 -0.1114  8.096150  7.180520  1.818020
236  2 -0.0646  2.954540  6.831770 14.554800
237  2 -0.2172 18.545200  4.088000 -0.050502
238  2 -0.5515 19.404800 17.770400 15.942700
239  2 -0.3715 21.311200  9.625380  1.769840
240  2 -0.3276 18.560900  8.913370 15.225900
241  2 -0.4833  4.094180  8.773050  7.402280
242  2 -0.4871  4.602260  8.414890 21.083300
243  2 -0.4709  3.055870 14.997500  6.917050
244  2 -0.6474  4.609970 16.330200 21.368800
245  2 -0.5405 13.751100  8.984870  8.555220
246  2 -0.8060 16.511100  6.846530 22.613400
247  2 -0.6676 15.643800 16.167100  9.152830
248  2 -0.5789 18.031900 17.412200 20.901200
249  2 -0.5205  2.007720  2.177370  8.245090
250  2 -0.5806  5.694810  4.028210 24.678800
251  2 -0.6016 -1.720970 11.186900  8.298750
252  2 -0.4819  5.855760 12.266000 20.557600
253  2 -0.6200 14.783200  3.836910  9.348790
254  2 -0.7676 17.121400  3.633420 22.294600
255  2 -0.4924 16.381500 10.955200  8.767740
256  2 -0.5057 16.683900 12.088300 22.155000
257  2 -0.1043  8.812000  8.003900  5.525940
258  2 -0.5789 11.080700  6.283610 20.662400
259  2 -0.4287  6.014260  4.012250  1.186330
260  2 -0.4397 -0.099308 13.180300 19.321800
261  2 -0.3403 -3.004390 17.163800  4.329310
262  2 -0.6339 17.937100  5.146220 14.743800
263  2 -0.3389 15.750900 15.735900  4.523870
264  2 -0.4291 19.633400 13.059000 15.208900
265  2 -0.1331  7.827710  3.931730  5.655890
266  2  0.0564  3.653210  3.714540 16.742300
267  2 -0.5869 -2.140470 17.332400 -0.763785
268  2 -0.3736 19.826800  2.743210 19.033200
269  2 -0.4854 15.339300  9.687590  0.438323
270  2 -0.6211 16.466000  2.318860 16.633900
271  2 -0.3918 11.549200  9.898920  5.916930
272  2  0.0596 13.569600 12.710600 18.575700
273  2 -0.4387 -2.036580  1.401970  7.706520
274  2 -0.5763 -2.074660  3.236860 22.693300
275  2 -0.5845 -0.276869 13.823100  6.031270
276  2 -0.4530 -2.089000 11.518700 22.222900
277  2 -0.4623  8.795060  8.335030 10.076200
278  2 -0.5186 14.353000  2.091050 20.686100
279  2 -0.5994 11.069800 11.816500 10.959200
280  2 -0.4811  5.798210  8.772540 15.736000
281  2 -0.5651 21.212400  6.754010  8.847360
282  2 -0.4741  0.627536  6.736460 20.460500
283  2 -0.2559 -1.641370 15.256900  9.413090
284  2 -0.0188 21.323200 15.720000 20.170400
285  2 -0.3424  7.709490 10.979800  7.622390
286  2 -0.6328  9.827880  8.942320 25.695400
287  2 -0.7809  9.723620 15.224500 10.563000
288  2 -0.7083  7.347710 16.567100 23.704900
289  2 -0.4662  9.086640  1.508780  8.588660
290  2 -0.3820  6.776510  2.638780 19.990400
291  2 -0.6764  9.864860  5.218260  8.475720
292  2 -0.4942  3.303660 16.171600 17.599600
293  2 -0.5320 19.168700 18.467500  9.065150
294  2 -0.2400 -0.907080 17.916700 18.768900
295  2 -0.4175 21.099100 10.329500  5.117280
296  2 -0.3816 19.122600  7.096420 17.821800
297  2 -0.6709  0.938003 16.736000  3.659260
298  2 -0.4628  2.647840  2.875020 21.752900
299  2 -0.4997 21.461300  6.686130  5.320320
300  2 -0.3639  0.192853  8.542960 14.425900
301  2 -0.6638 12.290500  5.651230  5.661440
302  2 -0.2384 13.255200 16.428200 18.435200
303  2 -0.5987 10.791900 15.500700  2.792100
304  2 -0.2621 12.267700  8.778160 15.487400
305  2 -0.6312  6.228410  2.595140 11.708900
306  2 -0.4771  2.166310  7.396080  0.376817
307  2 -0.4350  3.763000 11.323200 14.237000
308  2 -0.6552  3.650800 13.570600 25.375300
309  2 -0.4540 14.738200  5.453360 16.438000
310  2 -0.4096 18.042500  7.322110 26.701500
311  2 -0.5479 16.094800 12.818000 13.750900
312  2 -0.3999 18.318400 12.348500 26.625600
313  2 -0.4496  2.826600  8.542310 11.447800
314  2 -0.5082  4.125370  8.783880 24.429600
315  2 -0.6378  4.335700 15.415900 13.187100
316  2 -0.4005  7.611480 18.501000  3.107080
317  2 -0.4556 15.453100  8.043550 12.389100
318  2 -0.0569 17.927500 10.821600  2.898380
319  2 -0.6903 15.864200 17.558700 13.714700
320  2 -0.3459 16.826200 16.870800  0.135576

