Generated by pymatgen.io.lammps.data.LammpsData

78  atoms

 2  atom types

0.000000 13.294941  xlo xhi
0.000000 9.611277  ylo yhi
0.000000 17.144600  zlo zhi
-5.549073 0.000000 0.000000  xy xz yz

Masses

1  106.42
2   78.96

Atoms

1   1  0.761981  7.619650  4.731580
2   1  4.510470  1.738810 12.704100
3   1 -2.385900  7.554240  3.622750
4   1  7.793330  1.712740 13.577900
5   1 -0.688472  4.375850  4.478800
6   1  6.103350  5.087620 12.631000
7   1 -0.050957  1.101790 10.107400
8   1 -1.603360  5.327960  1.281850
9   1 10.015900  0.902518  9.013380
10  1  1.576420  5.327530  2.065190
11  1  6.158680  7.458630 10.010200
12  1 -0.001000  8.353630  1.174750
13  1  7.023190  4.216970 16.072400
14  1  5.326210  8.247870  6.666580
15  1  3.923450  4.146310 15.270000
16  1 -4.844790  8.223160  7.865800
17  1  5.414300  0.944208 16.087600
18  1 -0.872846  1.907840  6.543540
19  2  2.941290  4.197370  5.154810
20  2  2.309340  5.005900 12.320800
21  2  4.384730  1.299050  4.017240
22  2  0.592233  8.140950 13.444600
23  2  8.639120  4.405690  4.018030
24  2 -3.349390  5.144480 13.025800
25  2 -3.523170  6.926000 11.472500
26  2 -3.699010  8.142990  0.370286
27  2 -1.051990  4.759900  9.594330
28  2 -0.692691  1.574300  1.798390
29  2  2.454620  7.766330  9.070890
30  2  3.380150  8.532270  2.251720
31  2  9.060050  1.130430 16.794200
32  2  8.623750  2.474530  5.568160
33  2  5.903420  7.634560 15.412100
34  2  6.776220  5.008220  7.159480
35  2  1.641530  1.022070 15.418700
36  2  2.745330  1.352270  7.831000
37  2 -1.226690  8.990370  5.403030
38  2  6.501540  0.786101 11.718700
39  2 -2.799430  5.602870  5.015610
40  2  8.178150  3.661820 12.148600
41  2  0.518235  5.597850  6.251380
42  2  4.742470  3.604900 11.040900
43  2 -2.348910  2.075690 11.002700
44  2  0.489334  4.150220  0.304611
45  2  4.096320  8.642410 10.568900
46  2  2.029920  7.272640  0.618694
47  2 -6.136690  8.907090 11.686500
48  2 -1.153940  7.036600 16.584300
49  2  4.936560  5.434820 17.140100
50  2  7.351850  6.999710  6.060420
51  2  3.290480  2.093020 16.682400
52  2  1.105320  0.486851  6.306560
53  2  6.434730  2.543290  0.645842
54  2 11.171500  0.446849  4.919770
55  2  2.819490  6.402500  3.901200
56  2  2.522570  2.936690 13.558700
57  2 -2.145440  9.542760  2.046760
58  2  7.458900 -0.025263 15.354800
59  2 -2.095070  3.383660  2.725100
60  2  7.324920  6.098210 14.540500
61  2  4.070640  6.083300 13.818400
62  2  1.358710  3.379330  3.700440
63  2  9.007360  3.032740 15.370700
64  2 -3.716960  6.334120  1.923710
65  2 -1.362510  9.342510 14.187300
66  2  1.173080  9.405270  3.197360
67  2 -3.617910  9.521530  9.632260
68  2 10.359600  2.906750  7.361560
69  2  4.859120  6.289590  8.165640
70  2  8.261110  6.391080  9.588290
71  2  3.072490  9.320200  7.306880
72  2  0.305089  2.986450  8.560270
73  2 -1.164790  6.368210  7.838820
74  2  6.524050  2.470360  9.764390
75  2 10.870900  0.588986 12.863000
76  2  0.652148  5.932950 15.452800
77  2  4.837800  3.863080  1.736140
78  2 -6.057250  9.289630  3.454920

