Generated by pymatgen.io.lammps.data.LammpsData

6  atoms

2  atom types

0.000000 11.555973  xlo xhi
0.000000 4.509385  ylo yhi
0.000000 3.957514  zlo zhi
10.639829 10.639829 2.161629  xy xz yz

Masses

1  208.9804
2   78.9600

Atoms

1  1 12.697212 2.579615 1.530331
2  1 20.138419 4.091399 2.427183
3  2  9.930855 2.017591 1.196916
4  2 22.904777 4.653423 2.760598
5  2  3.714506 0.754653 0.447691
6  2 29.121126 5.916360 3.509823

