Generated by pymatgen.io.lammps.data.LammpsData

8  atoms

2  atom types

0.000000 5.873105  xlo xhi
0.000000 5.827982  ylo yhi
0.000000 5.769602  zlo zhi
-0.726624 -0.726623 -0.822844  xy xz yz

Masses

1  208.9804
2   78.9600

Atoms

1  1 0.000000 0.000000 0.000000
2  1 2.209929 2.502569 2.884801
3  2 3.610547 4.088659 2.393229
4  2 3.610548 1.791984 4.385598
5  2 0.809310 3.213155 1.384004
6  2 0.809311 0.916480 3.376373
7  2 3.088340 1.200626 1.384004
8  2 1.331518 3.804513 4.385598

