Generated by pymatgen.io.lammps.data.LammpsData

320  atoms

  2  atom types

0.000000 24.637781  xlo xhi
0.000000 17.058433  ylo yhi
0.000000 27.370788  zlo zhi

Masses

1  208.9804
2   78.9600

Atoms

1    1  0.7844 18.468500  9.243330  9.731560
2    1  0.7616 22.093300 14.864100 19.790100
3    1  0.4120  2.401770 11.876300  5.302130
4    1  0.8064  1.997320  5.761550 13.811200
5    1  0.6623  9.252390 10.979600  8.475920
6    1  0.5340 15.869000  2.528060 14.526700
7    1  0.7309  3.067500 18.346400  0.437443
8    1  0.5533  3.441860  7.631260 10.009800
9    1  0.5654  5.065250 17.496200 14.452800
10   1  0.6445 15.648300 17.361700 21.538300
11   1  0.7069  3.391710  9.803950 18.170300
12   1  0.7010  0.624717  3.897390 20.479600
13   1  0.6631 11.184400 15.226300 18.430900
14   1  0.5676 10.635400  6.416740 25.305500
15   1  0.7626 15.982800 10.930000 16.690800
16   1  0.7655 20.779600 15.126300 23.547900
17   1  0.5581  4.039320 16.365900 21.658600
18   1  0.6944  9.965890  5.694840 17.419700
19   1  0.8382 22.125400 16.678200 27.194600
20   1  0.5853 -0.439061  3.328190  0.775507
21   1  0.7370 18.545500  8.503430 17.698700
22   1  0.6892 19.444600  4.167960 10.518600
23   1  0.5858 21.986300  5.883920  0.339201
24   1  0.5705 13.324100 16.736100 23.877300
25   1  0.6182 17.022300  5.549210 14.432300
26   1  0.6734 20.579600  2.888590 23.687300
27   1  0.5625  5.511940 13.752300 11.912100
28   1  0.5750  2.271860  5.992060  1.204210
29   1  0.6567 19.657900 17.818700 10.721100
30   1  0.7719  8.513030  9.975720 13.451600
31   1  0.6068 21.859100 18.130900 20.293300
32   1  0.7439 16.690700 11.422600 20.444700
33   1  0.6547 -0.625845 17.849600  3.414060
34   1  0.5794 17.721200 17.410000 25.311300
35   1  0.5231  8.210090  6.277560  4.991500
36   1  0.7953 -0.759580  9.655990 14.046300
37   1  0.7336  9.048820 15.319600 15.278900
38   1  0.6636  6.553610 12.402400 15.836900
39   1  0.6314  7.578470 17.368600 11.072000
40   1  0.8791 12.165600  9.370420 18.289400
41   1  0.6938 -1.155510 17.456000 12.882000
42   1  0.6345  3.281060 13.804900 24.234800
43   1  0.7374 19.748300  8.777250 13.858500
44   1  0.5760 21.974300  4.436910  5.175550
45   1  0.7728 14.261600  4.850130 10.423400
46   1  0.5727 10.579100  3.355630 25.190700
47   1  0.6990 17.504000  2.181790  6.545640
48   1  0.4967  6.403970  6.637240  1.911410
49   1  0.6046  7.129960 16.405100  2.556510
50   1  0.8471  4.602520  5.271480 16.654700
51   1  0.5969  4.608250  8.315170  5.959090
52   1  0.7053 10.520800  4.459880 12.326000
53   1  0.5325 15.403800 18.100500 17.595300
54   1  0.6478 10.054500 14.436100 21.773500
55   1  0.6667 -0.758734 15.159500  8.757700
56   1  0.6889  2.102140  1.474180 11.813500
57   1  0.4846  7.598670 17.457700 26.594000
58   1  0.4773  7.016230  5.965770 25.992800
59   1  0.7151 -0.358325  9.326120  2.113940
60   1  0.6357  5.571050  6.735690 22.114000
61   1  0.7126  5.654310 10.934500 23.633600
62   1  0.8357 11.990200  3.776430 21.349200
63   1  0.6030  9.283970  9.479940  4.141920
64   1  0.6979  0.572386  6.160440  5.029900
65   1  0.6365  4.058290  4.791670 25.225400
66   1  0.6972  4.964510  1.490670  8.852620
67   1  0.5869 18.764800 18.215400  0.999283
68   1  0.6539 18.274900 16.464700 15.996000
69   1  0.7143  4.174450 13.469600 18.749600
70   1  0.5050  6.483560 17.861400 18.418000
71   1  0.6151  2.803300  7.172860 19.573600
72   1  0.6310  5.854690  4.117990 11.291900
73   1  0.6438 10.723900 15.989100  0.195460
74   1  0.6467  7.960970  3.859090 19.375700
75   1  0.5918 -1.180240  8.307500 21.361900
76   1  0.5734  6.752500  7.660900  9.749770
77   1  0.7699 19.447900  8.045730  2.658600
78   1  0.6872  3.900810 10.354700 13.088200
79   1  0.7540 19.997600 15.232900  7.910390
80   1  0.7578 -0.097218  3.296300 16.321700
81   1  0.5770 21.545800  4.578370 20.261800
82   1  0.3319  2.350350 12.128100  9.109490
83   1  0.8480  0.486309 17.281600 22.998800
84   1  0.7156  1.039060 12.783500 15.497700
85   1  0.6266 18.848500  4.412700  2.749690
86   1  0.5718 -0.790833  6.585530 18.434400
87   1  0.6863  8.832850  8.080370 22.308600
88   1  0.5865 17.887600  2.613820 19.146600
89   1  0.6561  0.119079 17.005800 17.589600
90   1  0.6982  6.199340  3.189060  4.157010
91   1  0.5836 -1.119300  4.993080 24.622800
92   1  0.5724 12.464500  3.764060 15.184400
93   1  0.4922 21.608200 11.236400 22.608300
94   1  0.7691 22.050200  4.576450 13.456800
95   1  0.6750 -0.408765  1.643010  6.890330
96   1  0.5912 19.531100 13.699700 11.619300
97   1  0.6428 -1.320870 12.860800 12.410400
98   1  0.5053  3.634010 18.141000 18.213200
99   1  0.5953  4.023780  4.980890  7.558120
100  1  0.6156 21.006600 10.945000 19.570500
101  1  0.8401 19.961100 11.861400 15.690800
102  1  0.6327  5.863080  2.235630 23.672300
103  1  0.6930 -0.567042 11.934800 25.060000
104  1  0.5374 10.017400  7.230860  1.760720
105  1  0.6277 20.952900  3.501670 17.249600
106  1  0.7728 16.596200 15.244700 12.452600
107  1  0.4863  3.716610 14.609500 14.721200
108  1  0.7530 12.677000 13.325100 14.848800
109  1  0.4321  0.170668 10.846500  7.997200
110  1  0.8352  7.445480  8.980810 17.663200
111  1  0.7458 14.690800  6.330770 17.852100
112  1  0.7382 15.286200  9.164570 13.062400
113  1  0.6332  0.313884  3.718250  9.902110
114  1  0.5561 -0.484608  7.735020 25.587200
115  1  0.4918  6.308790 11.535800  5.797040
116  1  0.7409  2.680210 12.602600  0.826476
117  1  0.7763 -1.787760  6.939350  8.728790
118  1  0.7131  9.244000 12.126800 25.696500
119  1  0.7869 20.548100 17.048700  4.551620
120  1  0.3254  7.190130 15.289900 25.027700
121  1  0.6163  8.333820 14.305100  5.267920
122  1  0.4414  5.951960 14.028700 27.252100
123  1  0.6992 11.398400  8.511930 10.427800
124  1  0.6199  7.989550 14.438700 19.285300
125  1  0.5838  2.376190  2.755600  4.181950
126  1  0.5768 22.067300 15.483000 15.369000
127  1  0.6376 -0.856313 13.642700  5.534300
128  1  0.6674 15.725300 14.077100 18.406400
129  2 -0.5465  0.013772  8.577890 10.149900
130  2 -0.4234  6.904940 10.545800 27.122200
131  2 -0.7911 21.731300 15.435100 10.086400
132  2  0.0818 16.642700  6.988760 22.310000
133  2 -0.4848 21.074200  7.804280 11.274700
134  2 -0.2105  9.626000 14.169500  8.931880
135  2 -0.6675 17.729400 17.455800 13.617200
136  2 -0.0356 11.418300 17.604600  4.187820
137  2 -0.1010 12.706800  6.291340  4.436740
138  2 -0.5817 18.121800  5.737970 17.400800
139  2 -0.2376 11.890300  8.305430  6.397430
140  2 -0.5708 19.669100 13.435200 21.300200
141  2 -0.6958 17.896200 12.131500 18.178500
142  2 -0.2841  2.250240 11.321400 20.490400
143  2 -0.3610 -2.002160  7.829270  5.796420
144  2 -0.4670  2.082730 14.502000 21.727900
145  2 -0.5268 -2.113370  2.162520 11.079000
146  2 -0.5457 19.195800  9.438310 20.832500
147  2  0.0194 15.863500 12.310400  3.893890
148  2 -0.3148 21.852500 10.932000  7.493320
149  2 -0.5905 17.484100 10.440600 14.120200
150  2 -0.8666  6.254700 15.114700 16.925900
151  2 -0.5828  5.903950  9.839920 14.820800
152  2 -0.5631  8.372140 16.630900 20.856400
153  2 -0.7991  7.362060  8.807840  6.845950
154  2 -0.4347 11.548800 16.437900 15.433300
155  2 -0.4621  1.062040 13.259500  3.326880
156  2 -0.5464  5.589100 10.372800 19.937100
157  2 -0.0454 15.770300 13.902100  7.358040
158  2 -0.5717 14.932800  9.675270 18.925800
159  2 -0.7289 -1.948490 15.864700  6.619680
160  2 -0.5457  1.171590 17.710500  8.777470
161  2 -0.6512 -1.938120 12.769800 15.154600
162  2 -0.5679 -2.421030  3.980700  8.525990
163  2 -0.6172 18.223900 13.810300 14.127000
164  2 -0.3780  1.986780 16.584800  4.478660
165  2 -0.3924  4.663320 14.489800  7.350280
166  2 -0.3969 19.289000  4.608580 21.774500
167  2 -0.6507  6.552740  9.588670  3.520320
168  2 -0.5204 10.029400  2.041530 22.784000
169  2 -0.1799 10.628600 15.571100 12.046700
170  2 -0.7465  8.626230  5.154430  0.986753
171  2 -0.8217  1.405890  3.782450  6.393690
172  2 -0.6257  6.802780 14.393300 22.152300
173  2 -0.3821  7.110620 16.981100  8.375520
174  2 -0.0893 19.662600  7.796710 25.125900
175  2 -0.3494 15.937700 17.336500 -0.008597
176  2 -0.7085  7.657970  4.943390 22.434900
177  2  0.0294 15.226600 15.444600  2.847790
178  2 -0.6900  1.805530  5.489040 16.723600
179  2 -0.5318  7.822250 12.098400 22.907700
180  2 -0.5591 -2.412500 17.277700 24.470800
181  2 -0.7168  1.766570  4.326870 26.151500
182  2 -0.6089 13.111700 13.072100 18.103300
183  2 -0.0971 13.915100 14.195300  0.354231
184  2 -0.7479  3.766800 12.231700 16.226400
185  2 -0.0859 19.358700 12.010700 27.137900
186  2 -0.6121 21.001800 11.264600 12.199600
187  2 -0.6737 19.631800 17.674900 22.609800
188  2 -0.3079  8.069340 17.424900  5.148090
189  2  0.0078 16.704200 11.542200 25.183800
190  2 -0.6091  4.844430  4.304780 20.147000
191  2 -0.0629 13.873800  2.348310  6.256970
192  2 -0.0840 11.385000  4.650990  5.575690
193  2 -0.2375 13.427100 13.479300 12.099500
194  2 -0.5351  1.582390 14.324600 26.231700
195  2 -0.7366  5.345590 11.272700 10.814700
196  2 -0.3210  5.545620  6.312810 13.861000
197  2 -0.3215 11.451600  4.906300  9.463740
198  2 -0.5162  2.448690  2.650200 21.747800
199  2 -0.3276 19.607500  7.774960  5.158240
200  2 -0.4922 12.878700  2.691670 12.392900
201  2 -0.8533  4.685740 17.980200 11.356100
202  2 -0.3616 10.612500  2.560890 19.249800
203  2 -0.3911  8.531560  6.972610 15.657400
204  2 -0.6178  8.029760 13.220800 13.169500
205  2 -0.5683  0.215539 17.793800  0.605646
206  2 -0.6048 15.204700 15.269500 15.736500
207  2 -0.0664 12.699600 10.182400 27.053700
208  2 -0.6603 18.271600 16.999000 19.176600
209  2 -0.8763 -0.502733  5.827290  2.314950
210  2 -0.6083 -1.344180 13.866200 23.278100
211  2 -0.6118 20.835700  9.669310 16.493000
212  2 -0.0416  9.644520  2.857700  7.566400
213  2 -0.4768 20.166000 14.961400 26.415200
214  2 -0.2715 18.549600 12.389800  7.901650
215  2 -0.4573 13.747800 14.415700 21.446400
216  2 -0.5100 22.097200 16.015300  2.448730
217  2 -0.6890 -1.018500  3.287100 22.420400
218  2 -0.5853 21.372800  8.329580  0.308388
219  2 -0.5001  8.399130  7.468480 12.044500
220  2 -0.4873 21.292300  6.966120 22.861000
221  2 -0.5371  4.493860  2.854540 15.585500
222  2 -0.5032 -1.393110  7.155560 14.653100
223  2 -0.6652  0.842274 15.498000 12.139800
224  2  0.0540 15.623300  6.606680 26.770700
225  2 -0.5189  9.108420 18.338500  1.283310
226  2 -0.4455 12.375900  6.157900 20.024100
227  2 -0.7272  0.996854 11.679400 12.740600
228  2  0.0041 14.604800  8.540130  4.457250
229  2  0.0072 16.034900  9.011710 26.921000
230  2 -0.6207 -0.057217  3.243170 13.304500
231  2 -0.0443 14.410300  7.976900  2.407030
232  2 -0.4343 13.276300 10.317900 15.752100
233  2  0.0050 14.776400  3.337830  1.124160
234  2 -0.5196  7.799930  4.967140  9.910370
235  2 -0.0294 15.758100 10.957000  2.127570
236  2 -0.6225  6.462780  4.459480  6.751840
237  2  0.0194 14.388400 15.324900  7.071970
238  2 -0.3519 16.635600 14.742300 23.362300
239  2 -0.6962  4.516740  2.748030  2.019130
240  2 -0.4889 -1.198760 13.887800 18.224800
241  2 -0.5837 12.517200  6.810240 12.624700
242  2 -0.6112  9.369100 12.925600 16.717500
243  2 -0.5621 20.336300 18.131700  7.466270
244  2 -0.6726  3.972690 17.215200 24.437900
245  2 -0.6474  1.798890 18.320200 16.049500
246  2 -0.4082 13.483000  3.373310 24.271500
247  2 -0.2774 -1.306400 12.023200  1.043980
248  2 -0.1495 16.263000  5.961910 20.647400
249  2 -0.4515  7.595250  2.745670 13.845700
250  2 -0.6744  5.751240  2.612430 26.333400
251  2 -0.4746 -0.819856 10.621800  4.895810
252  2 -0.6467 -0.449686 16.895600 20.588900
253  2 -0.3718 11.595400 12.801400 24.401500
254  2 -0.6253  0.836185  6.585280 21.761600
255  2 -0.3533 19.476200  6.175470  7.963780
256  2 -0.3689 12.383400  6.983900 -0.004110
257  2  0.0324 13.516200  3.537950  2.652540
258  2 -0.4791 19.076000  5.793370  0.460890
259  2 -0.1041 12.643300 10.892900  1.494680
260  2 -0.5063 -0.343432  9.496350 18.457300
261  2 -0.5135  4.341950 14.374300  2.495330
262  2 -0.4671 10.646600 11.197600 10.852600
263  2 -0.4054 16.635700 11.370400 10.852000
264  2 -0.5877 17.806800  6.732380 12.070700
265  2 -0.5671 13.593900  3.304420 17.774600
266  2 -0.5535 20.237100 14.493800 17.104600
267  2 -0.4322 18.593300 15.712100  5.790610
268  2 -0.0167 19.566800 13.192900  1.620550
269  2 -0.0909 11.796700 15.940500  5.452220
270  2 -0.4115  3.684210  8.096580 23.495600
271  2 -0.5969  9.821880 11.664700  5.425950
272  2 -0.7214 21.566500  2.609750 27.021600
273  2 -0.6309  8.663780  6.990040 19.488200
274  2 -0.9220  8.606450 14.466900  0.266711
275  2 -0.6825  3.325650  6.625500  4.051140
276  2 -0.0283 13.572700 10.854300 23.441600
277  2 -0.0406 18.392300  9.378030 24.528600
278  2 -0.4593 16.995300 16.987400  9.935050
279  2 -0.3408 14.293300  7.934520  9.351780
280  2 -0.0132 18.788900 12.391800  4.682890
281  2 -0.5695 21.336100  6.252410 17.566900
282  2 -0.4985  0.369505  9.529870 23.553700
283  2 -0.3468 17.106500  6.193500  3.298590
284  2 -0.4191  9.842930  9.658570 16.891300
285  2  0.0121 10.330900 18.001700  7.492980
286  2 -0.3368 16.616800  4.623110  7.977160
287  2 -0.0252 16.723000 13.177600 26.602600
288  2 -0.3101 10.162600 10.723900 20.028200
289  2 -0.5494 12.801900  6.824880 15.958400
290  2 -0.4347  3.260380 11.112600 25.314500
291  2 -0.3757 12.986300 18.044700 26.599200
292  2 -0.3195 11.789500  8.057050 22.421800
293  2 -0.0916 13.548000 10.841400  8.091640
294  2 -0.5706 15.552900  2.639250 19.937500
295  2 -0.0070 14.386600  9.005460 24.231300
296  2 -0.4843  2.238690  8.545290 15.186500
297  2 -0.7000  8.397540  8.228990 25.135800
298  2  0.0388 17.360300  5.579190 24.866800
299  2 -0.0555 16.975000 14.648500  2.396850
300  2 -0.7799  2.664810  5.086690 11.489600
301  2 -0.3163  5.091360 17.907800  5.504420
302  2 -0.6217 16.066600  8.415790 15.860900
303  2  0.0334 14.941500 10.223700  6.717710
304  2 -0.6902  5.286860  7.212800 18.069800
305  2 -0.6329  2.509300 15.087900 17.426500
306  2 -0.5651  1.342430  9.230900  0.062947
307  2 -0.5708 19.477500  3.844720 14.008800
308  2 -0.7655  2.577280  7.362970  7.656510
309  2 -0.4312 12.681300 17.698800 20.920100
310  2 -0.0665 13.711700  1.481010  8.343960
311  2 -0.0698 12.864400 13.505800  3.378560
312  2 -0.1652 16.383600  3.896020 26.474800
313  2 -0.9556 -1.525300  2.810200 18.480400
314  2 -0.5209 17.613200  1.447080  3.580150
315  2 -0.5013  8.797050 17.837700 16.605200
316  2 -0.8485 21.649100  2.339680  3.587100
317  2 -0.6907 22.087400  1.742550 15.050200
318  2  0.0076 12.889400 12.834100  5.532120
319  2 -0.0651 20.483200 11.365200  4.200240
320  2 -0.5208 16.251300  3.405150 11.961500

