Generated by pymatgen.io.lammps.data.LammpsData

320  atoms

  2  atom types

0.000000 24.637781  xlo xhi
0.000000 17.058433  ylo yhi
0.000000 27.370788  zlo zhi

Masses

1  208.9804
2   78.9600

Atoms

1    1  0.6062 -1.338230 18.189000  2.875220
2    1  0.7187  0.643861 17.011800 17.086200
3    1  0.6275  3.512360 10.403700  4.166480
4    1  0.7515 -2.251860  8.759350 14.122100
5    1  0.7169 11.346400  9.194430  3.091330
6    1  0.6500  7.645940 16.897400 16.519000
7    1  0.6177 15.803800 15.623200  4.637430
8    1  0.8239  7.978350  9.306090 17.730100
9    1  0.6990  3.975550  6.255370  8.388070
10   1  0.8631  1.987940 17.288200 27.242700
11   1  0.7618  1.426030 15.246300  8.636250
12   1  0.5673  5.014340 17.090800 23.368500
13   1  0.7327 14.502000  6.587580 15.679200
14   1  0.6907 16.545500  5.007340 25.480800
15   1  0.7016 15.506200 15.149900 12.819800
16   1  0.5386 17.474600 12.850200  0.414700
17   1  0.8584  3.283340  1.671380  4.145970
18   1  0.7271  1.279460  5.650800 18.863100
19   1  0.7167  5.096250 14.821400  1.910620
20   1  0.8416  2.749870 12.391100 19.922900
21   1  0.7722 15.578500  4.382820  8.917120
22   1  0.6461 17.466400  3.603150 17.544200
23   1  0.7191 18.896000 10.004600  3.394170
24   1  0.7045 14.929600 10.938500 21.344600
25   1  0.7582 -1.898950 17.982600 13.032700
26   1  0.7090 -1.422750 18.407500 22.934400
27   1  0.7549 -2.389550 11.702800 11.106800
28   1  0.5092 -1.819910  7.364580 23.439200
29   1  0.6420 11.578600 17.948000 11.335300
30   1  0.7275  9.351580 17.928900 20.154700
31   1  0.7781  4.574710 13.726400 11.381600
32   1  0.7000 11.979800  9.212660 18.772800
33   1  0.7925  0.985528  5.722160  5.506540
34   1  0.7209 19.878900  6.049110 16.180300
35   1  0.7788 21.990000 14.957500  4.288310
36   1  0.7125 -1.262060 11.783800 15.784900
37   1  0.6910 12.242600  7.145250  7.795880
38   1  0.7591  6.072650  3.193230 16.760700
39   1  0.7422  7.912400 18.133700  2.954020
40   1  0.7425  8.150730 13.097400 18.377700
41   1  0.6014 20.335500  5.540210  9.622380
42   1  0.6884  1.427640  4.128310 22.111600
43   1  0.8007 19.285600 13.288400 12.799100
44   1  0.7405 -0.629645 13.868600 23.395500
45   1  0.7453 11.218200  4.612290 12.782100
46   1  0.7178  7.537020  7.387860 27.290000
47   1  0.8451  9.119990 13.347000 13.459800
48   1  0.5525  6.584100 12.441300 27.369200
49   1  0.7368  1.265810 13.687400  3.662080
50   1  0.7559  5.075590  3.637250 21.116000
51   1  0.7688  3.161800  7.153340  2.627920
52   1  0.6460  0.846823  8.803090 16.086700
53   1  0.6698 18.255900 12.423500  7.606460
54   1  0.5872 12.193400  6.531420 21.082200
55   1  0.6550 21.025600  8.578030  9.109240
56   1  0.7379 22.309700  7.260010 19.394100
57   1  0.8231  4.416270 17.877700  8.021820
58   1  0.7318  7.309800  2.876310 25.277900
59   1  0.6426  3.106660  7.278490 11.732900
60   1  0.6308  3.672230 14.696300 25.089700
61   1  0.7335 17.359000 17.720600  8.282440
62   1  0.6463 19.557900 16.681300 22.587000
63   1  0.7897 13.651600 13.043500 10.075000
64   1  0.5966 14.259200  8.330000 23.608100
65   1  0.5417  0.643539  8.409310 25.770200
66   1  0.6742  0.414735  4.843960 13.571400
67   1  0.7731  5.943450  4.000520  1.638610
68   1  0.7867  1.151110 14.342100 12.649900
69   1  0.7310  9.404020  9.801890 25.206700
70   1  0.6863 10.714700  6.086090 16.243400
71   1  0.7512 14.488100 16.708800 27.400700
72   1  0.7536 11.232200 16.361600 14.859200
73   1  0.5834  5.059870  9.062780 23.891200
74   1  0.6358  8.854860  3.324230 10.374500
75   1  0.6768  8.341950 15.339200 25.764100
76   1  0.7622  4.884210 14.041500  6.858640
77   1  0.7963 21.793600  5.335950  2.047060
78   1  0.6190 20.702100  5.278470 12.840100
79   1  0.7202 20.256000 15.272000  0.988564
80   1  0.7402 19.821200 17.951300 16.135200
81   1  0.7828 -1.286630  3.646560 26.166600
82   1  0.6555  2.485490  1.926930 14.104700
83   1  0.5474  3.341400 11.410700  0.452354
84   1  0.7824  3.965300 14.183300 15.738000
85   1  0.6084 12.675600  7.925080 26.731900
86   1  0.8149 12.204800  2.872800 18.634100
87   1  0.6477 14.611400 10.946700  1.288660
88   1  0.7951 12.184700  9.848250 11.416200
89   1  0.7741 15.368400  2.196960 23.104700
90   1  0.7160  6.133730 18.330500 13.389400
91   1  0.7861  9.178450 11.557400 21.739800
92   1  0.7654  5.809440 10.900800 14.540600
93   1  0.6753 19.634700  3.140300 24.083100
94   1  0.7271 18.637700 18.162800 12.319300
95   1  0.6293 21.019600 12.077700 26.227800
96   1  0.6902 18.379600  9.060420 12.101000
97   1  0.7901  0.110461  9.667840  5.848730
98   1  0.6079  3.681700  5.638230 24.736700
99   1  0.6478 -0.002955 18.029800  6.184250
100  1  0.5455 -1.336540 16.920400 19.620300
101  1  0.6832  8.156740 10.885000 10.474500
102  1  0.6618 16.941500  5.462670 21.075200
103  1  0.7596 12.168300 18.132600  6.107450
104  1  0.7412 11.381500 17.877600 24.504700
105  1  0.6755  6.900490  6.748530 10.686100
106  1  0.6983  5.810560  9.144620 21.025300
107  1  0.6623  8.102250 15.966600  8.873160
108  1  0.7474  4.245830 16.157200 20.277600
109  1  0.7332 16.156000  9.047990  9.313140
110  1  0.6943 18.673100  7.416770 23.874000
111  1  0.6638 21.586600 18.359400  8.143930
112  1  0.7531 14.681800 18.194700 14.938900
113  1  0.7017  0.543227  3.421340  9.988930
114  1  0.7591 -0.335972 12.412400 27.262200
115  1  0.5497  4.014470 10.097500 11.361100
116  1  0.5418  0.806559  8.106170 21.155000
117  1  0.6242  8.226400  1.777410  7.334400
118  1  0.8220 13.554700 16.921800 21.112400
119  1  0.6142 15.434700 10.930800  5.674440
120  1  0.7246 12.634400 13.242300 24.031800
121  1  0.8197  5.686670  5.175490  5.228300
122  1  0.7860  8.925600  4.927410 20.880300
123  1  0.6707  4.868160  9.595080  7.489840
124  1  0.7487 11.280500 13.328200 19.928100
125  1  0.5833 21.931400  3.245260  5.188410
126  1  0.6926 20.665300  3.452710 20.185300
127  1  0.6842 22.166300 13.491000  7.889690
128  1  0.6573 17.664600 13.175200 23.360600
129  2 -0.6724  4.411880  5.179670 10.575100
130  2 -0.3872  6.354410  5.491720 19.532700
131  2 -0.6956  5.472440 14.869200  9.438080
132  2 -0.7013  5.370410 16.409000 26.277000
133  2 -0.5499 17.381500  6.585320 10.212700
134  2 -0.4688 20.847300  9.256330 24.787900
135  2 -0.7288 19.882000 10.914800 10.317400
136  2 -0.4244 17.651800 16.185300 24.468100
137  2 -0.5548 18.216600  2.924560 10.528300
138  2 -0.6192  3.014570  1.805880 21.962800
139  2 -0.6144  2.124160 13.180100 10.664100
140  2 -0.6069  1.609590 12.351000 25.339600
141  2 -0.5583 13.318100  7.531300 10.464200
142  2 -0.6979 12.086800 10.647500 22.072600
143  2 -0.3651 14.573100 16.062200  9.505660
144  2 -0.5267 14.339100 16.826700 24.255900
145  2 -0.3794 15.387900  6.882050  6.923390
146  2 -0.5060  2.303440  9.521930 17.974700
147  2 -0.0826 14.849900  2.727400  1.187080
148  2 -0.4892  2.890160 17.553400 10.361600
149  2 -0.1619 10.867900 10.998000  7.359640
150  2 -0.3264 13.327700 14.815600 15.854400
151  2  0.0791  8.380530 12.209600  3.896090
152  2 -0.7472  9.858840 10.789300 18.818100
153  2 -0.5905  3.756890  8.519340 27.152400
154  2 -0.5383 -1.908370  9.478400 17.647100
155  2 -0.3686 21.251800 10.685000  6.004560
156  2 -0.5366  6.303520 11.628300 20.008300
157  2 -0.5272  7.026520 11.251700  8.055680
158  2 -0.4723 12.717400  8.453810 15.873400
159  2 -0.0195 14.165100  5.320140  3.663240
160  2 -0.4753  5.069680  3.768980 14.072900
161  2 -0.6129  3.744260  4.385090  3.264000
162  2 -0.4540  4.375850  2.576810 25.951700
163  2 -0.7395  6.551730  9.414940 12.344200
164  2 -0.5317  8.990430  8.752810 21.664000
165  2 -0.4955 21.747800 16.326900 14.626600
166  2 -0.4919 21.752900 17.952200 25.080200
167  2 -0.4510 -0.369551 12.116000  8.386760
168  2 -0.4924 17.870900 10.122300  0.636819
169  2 -0.6137 21.890000  2.899110 10.649100
170  2 -0.5114  5.209850 18.045100  2.087540
171  2 -0.6074  2.601900  8.767440  9.184090
172  2 -0.6928  3.062930  6.545820 20.886600
173  2 -0.5559 11.557900  2.232800 13.866000
174  2 -0.5607 11.963800  2.353220 21.526900
175  2 -0.4229 14.542200 13.401400  6.444220
176  2 -0.6292 11.645300 10.324500 -0.017654
177  2 -0.4859  0.741281  8.145090  3.546570
178  2 -0.7305 -2.387040  3.805660 23.740300
179  2 -0.0659  9.219830  9.813630  6.510790
180  2 -0.5337 16.896400  9.286060 22.675700
181  2 -0.3747  8.997190  3.200360  4.750160
182  2 -0.6163  9.404390  3.394770 18.797700
183  2 -0.4701 21.580800  6.463800 26.984000
184  2  0.0734 18.897000 10.912200 18.365100
185  2 -0.4986 13.542400 11.869600  3.557120
186  2 -0.4152  5.557370  9.347190 16.901900
187  2 -0.5124  8.189270  4.710450 27.325200
188  2 -0.6238  6.162150 17.989700 18.988500
189  2 -0.1484 17.670400  4.667600  0.792694
190  2 -0.3203 13.760700 11.779100 18.788000
191  2 -0.1351 18.549300  1.649180  2.544320
192  2 -0.5942  9.019600 14.254400 20.794900
193  2 -0.5812  6.216130  6.521120  2.752590
194  2 -0.5130 21.612900  4.689550 17.945700
195  2 -0.5468 -0.872446 17.087900  9.703970
196  2 -0.5505 14.075200 13.998300 21.539700
197  2 -0.3658 12.390400  3.675640 24.967200
198  2 -0.5276 14.582700  3.343380 19.619900
199  2 -0.2345 11.163800 17.859900  2.217650
200  2 -0.5810  9.373750 12.591300 24.129300
201  2 -0.3409 21.934100  6.759140  4.867800
202  2 -0.2173  8.165560  6.438710 15.414800
203  2 -0.4643  6.001830 15.890700  4.474190
204  2 -0.5543  5.182710 14.332800 18.721400
205  2 -0.6277 22.019200  7.640990 11.653400
206  2 -0.3151 -2.418750  9.549120 21.304300
207  2 -0.3614 14.195000 17.581100  3.657320
208  2 -0.0239 18.998500  9.931090 20.624000
209  2 -0.4574  0.224058  6.430290 11.127000
210  2 -0.5206  0.603623 10.129200  0.849086
211  2 -0.5841  0.338256 16.520000 14.216400
212  2 -0.5475 -1.433130 15.543200  2.057590
213  2 -0.5193  8.721530  4.660460 12.725200
214  2 -0.4007  8.103020 13.802500  1.377340
215  2  0.0509 16.529900 13.115200 16.766400
216  2 -0.3948 11.227200 15.134000 26.302200
217  2 -0.4911  0.501362  2.885410 15.581800
218  2 -0.3214  1.376870  2.638670  1.247040
219  2 -0.5834 -0.333067 10.680100 13.252600
220  2 -0.3727 -0.747881 11.857800  3.703550
221  2 -0.4518  9.290910  1.957830 15.492200
222  2 -0.6955 14.704700  5.728980 22.918200
223  2 -0.6183  9.383310 14.265700 16.241400
224  2 -0.2363  7.825970 10.604300  3.162250
225  2 -0.5120  1.429630 16.697900  3.562850
226  2 -0.2855 17.423000 15.717000 20.979700
227  2 -0.6431 -1.028490  3.207750  7.716730
228  2 -0.6137 15.312200 12.589600 25.935900
229  2 -0.5151 16.972100  2.383060 25.227600
230  2 -0.5462  8.313720 16.477400 13.613000
231  2  0.0431 15.862100  4.230490  4.511430
232  2 -0.5410 12.127300 15.276900 12.274500
233  2 -0.4940  6.477860  7.347680  7.048810
234  2 -0.6065  6.354800 13.712100 14.093200
235  2 -0.4463  1.844160  5.595040 26.898500
236  2 -0.3489  0.017491  6.770680  7.952860
237  2 -0.1422 11.658800  4.980910  1.333410
238  2 -0.0235 15.600300 14.439600 18.256900
239  2 -0.7402 -0.562830  3.662470  4.042110
240  2 -0.6103 19.640000  7.895590 14.424000
241  2 -0.7091  3.286010  7.299520  5.643930
242  2 -0.5448  2.567030 10.150700 22.185600
243  2 -0.6058  2.993510 16.142400  6.475900
244  2 -0.4485  0.529168 16.196700 24.927900
245  2 -0.5734 13.922700 10.730600  8.767970
246  2 -0.6805 17.932300  2.625540 22.076300
247  2 -0.4922 18.333000 15.248300 10.956900
248  2 -0.3528 16.055100 17.383500 16.907600
249  2 -0.5122  2.406290  2.852220  7.086040
250  2 -0.6172  5.826390  5.615040 23.108100
251  2 -0.6632  3.427380 11.733700 14.015500
252  2 -0.4516  4.721870 13.165100 22.566200
253  2 -0.4610 14.994100  1.801460  7.158470
254  2 -0.6171 18.922000  1.812750 18.636800
255  2 -0.5088 16.289400 12.607800  9.758820
256  2 -0.5756 11.123700 16.107500 22.579900
257  2 -0.2649 10.328000  6.562630  5.942890
258  2 -0.6040  9.377500  7.038270 18.750300
259  2 -0.7553  6.911020  9.617200 26.123500
260  2 -0.2512 -0.283654 12.038100 20.930800
261  2 -0.4951 17.168400 16.035200  1.048050
262  2 -0.5165 17.383500  4.245820 14.497800
263  2 -0.6374 19.945300 13.845300  5.287250
264  2 -0.5681 21.017700 11.032600 13.737700
265  2 -0.6077  5.624690  2.012490  5.553040
266  2 -0.3421  3.072300  3.812210 17.314100
267  2 -0.5688 -1.984820 14.515100 26.442900
268  2 -0.5581 18.006400 16.358100 14.144900
269  2 -0.5083  9.889050  7.258950 24.830800
270  2 -0.3693 14.038500  4.896840 13.106500
271  2 -0.5267 14.153400  8.528140  2.784760
272  2 -0.0154 19.257500 10.962400 16.323400
273  2 -0.6190 19.593600 17.437500  6.383380
274  2 -0.4125  1.070310  2.733850 24.907700
275  2 -0.6356  2.747210 11.639000  6.243110
276  2 -0.4773 21.837600 14.719600 21.018800
277  2 -0.4662  9.946190  7.896070 11.101000
278  2 -0.6150 13.262300  3.901550 16.450600
279  2 -0.5043 10.566800 11.528700 12.680400
280  2 -0.3150  9.040560  9.822230 14.944400
281  2 -0.1414 22.169700  8.829090  2.372620
282  2 -0.7069 -0.765043  5.418600 21.075300
283  2 -0.4921 21.855300 14.612700 11.088000
284  2 -0.5445 21.453000  2.861330 14.976500
285  2  0.0416 11.031400 13.407900  5.243560
286  2 -0.0653 11.141400  5.223240  3.277850
287  2 -0.4797  9.271530 13.939800 10.508300
288  2 -0.6347  7.716760  2.422020 22.237700
289  2 -0.5366 10.862100 16.600400  7.839080
290  2 -0.5803  3.302470 16.934900 16.900100
291  2 -0.4717  7.013660  4.003820  7.737190
292  2 -0.5149  1.850200 14.874200 21.212200
293  2 -0.3212 18.391000  3.894590  6.926020
294  2 -0.1618 20.734800 13.085000 16.716400
295  2 -0.5974 18.082500  9.655120  7.505990
296  2 -0.6265 19.653500  6.015330 20.733000
297  2 -0.6952 -0.675414 15.348200  5.795810
298  2 -0.5802 -0.525334  2.356290 20.566500
299  2 -0.1619 18.693400  7.155350  5.177040
300  2 -0.5431 -1.626980  5.926010 15.235800
301  2 -0.6281 10.971000  3.129890  8.409800
302  2 -0.5531 11.855400 17.264200 18.747900
303  2 -0.1146 11.373000 14.939100  3.714590
304  2 -0.5564 14.684000  7.916810 20.024400
305  2 -0.5849  6.480000 18.470700  9.993150
306  2 -0.5574  5.178380 12.499000  3.671320
307  2 -0.5088  0.759656 13.904700 17.008300
308  2 -0.7032  2.559240 14.356200  0.836012
309  2 -0.2941 17.347200  7.915720 17.330000
310  2 -0.5370 16.536300  7.584610 25.918300
311  2 -0.3474 16.934200 12.459600 13.733100
312  2 -0.3518 20.177000 12.221500 22.776200
313  2 -0.4374  2.405950  6.346330 15.119100
314  2 -0.5376 21.234200  3.153160  0.997066
315  2 -0.5487  3.937740 15.640100 13.498900
316  2 -0.5107  8.471200 17.911000 26.918000
317  2 -0.2959 14.485800  9.882120 13.147500
318  2 -0.0210 18.291900  6.017530  3.204540
319  2 -0.5075 14.860600  1.081960 12.233600
320  2 -0.6296 20.440800 12.775600  1.604320

