Generated by pymatgen.io.lammps.data.LammpsData

320  atoms

  2  atom types

0.000000 24.637781  xlo xhi
0.000000 17.058433  ylo yhi
0.000000 27.370788  zlo zhi

Masses

1  208.9804
2   78.9600

Atoms

1    1  0.6845 -1.781550 18.152100  0.461271
2    1  0.7304 21.887100  1.262910 14.823600
3    1  0.7161 -1.633070 10.250800  0.417517
4    1  0.7188 21.717800  9.883680 15.001900
5    1  0.6365 10.191600 18.362900  0.505656
6    1  0.7735  9.251100 18.013700 13.990600
7    1  0.7039 10.468900  9.380990  0.548921
8    1  0.7164  9.263520 10.062400 14.572800
9    1  0.7876  3.276010  5.579360 10.086000
10   1  0.7322  4.040830  5.428750 24.010400
11   1  0.7763  3.038300 14.508800 10.359600
12   1  0.8185  4.752970 14.201200 24.098300
13   1  0.7455 15.173400  5.307920 11.037800
14   1  0.6989 16.719800  5.530320 23.862400
15   1  0.7468 15.515400 14.164600 10.321900
16   1  0.7893 16.601700 13.862200 23.184500
17   1  0.6841  3.460760  6.032880  5.887470
18   1  0.7319  3.926310  5.577540 19.832400
19   1  0.7156  3.193740 14.242300  5.894400
20   1  0.7303  4.079060 14.050900 19.605100
21   1  0.7029 15.963500  5.488730  6.347550
22   1  0.6913 16.379700  5.594840 19.538200
23   1  0.6939 15.834800 14.228900  6.247900
24   1  0.7204 16.473900 13.977100 19.549600
25   1  0.8006 21.757400 18.400500 10.391400
26   1  0.7877 -1.892620  1.381160 23.537500
27   1  0.6639 21.698300  9.816260 10.418900
28   1  0.7807 -1.322190 10.159000 23.515700
29   1  0.7378  9.590650  1.392840 10.049000
30   1  0.7492 10.024100 18.070400 23.402800
31   1  0.8149  9.142890 10.037800 10.221500
32   1  0.7479 10.606300  9.494370 23.412500
33   1  0.6637 -1.550670  5.627760  0.481879
34   1  0.6994 21.616600  5.635680 15.359500
35   1  0.5996 -1.866550 14.607900  1.032130
36   1  0.6884 21.942800 14.608700 14.621100
37   1  0.6627 10.050500  5.149710  0.084845
38   1  0.6277  9.461350  5.926000 14.408300
39   1  0.6854 10.571600 13.952300  0.401504
40   1  0.7206  9.522640 13.964900 14.204600
41   1  0.6812 21.628000  5.675450 10.880700
42   1  0.7882 -1.945700  5.562670 24.068700
43   1  0.7462 21.929600 13.867600 10.260900
44   1  0.7775 -1.344220 14.284400 24.069500
45   1  0.6951  9.015460  5.958220 10.590500
46   1  0.8018  9.933890  5.235430 23.533200
47   1  0.7814  9.296830 14.401000  9.594940
48   1  0.7695 10.282600 14.181800 23.068800
49   1  0.6244  2.837570  2.290140  5.544820
50   1  0.7078  3.509420  1.790410 19.821400
51   1  0.7144  3.123100 10.137900  6.112980
52   1  0.7881  4.235750 10.212800 20.000200
53   1  0.6516 15.809300 17.951400  5.999200
54   1  0.7353 16.602300  1.447190 19.682300
55   1  0.6920 15.431600  9.748880  6.440920
56   1  0.6965 16.788100  9.676280 19.620500
57   1  0.7397  3.129640  1.822950 10.098900
58   1  0.8051  4.027330 17.981500 24.173600
59   1  0.7658  3.433270  9.985430 10.673500
60   1  0.7311  4.434950  9.920380 24.451100
61   1  0.7409 15.427000  1.241660 10.753900
62   1  0.7566 16.786100 17.900100 23.595700
63   1  0.7230 15.514400 10.157300 10.714300
64   1  0.7527 16.659900  9.481800 23.666700
65   1  0.8307  1.252660  7.886360 25.655300
66   1  0.7042  0.006388  7.743730 12.484400
67   1  0.7969  1.353060 16.148800 26.390000
68   1  0.7329 -0.058652 16.303000 12.349300
69   1  0.7800 12.941700  7.430870 25.850600
70   1  0.7520 12.173500  7.956000 12.574800
71   1  0.8019 13.356300 15.719800 26.294000
72   1  0.7870 12.020300 16.347900 11.966500
73   1  0.7320  6.889650  7.740130 26.229200
74   1  0.8102  6.387320  8.049050 12.491900
75   1  0.7379  7.719380 16.228000 25.612600
76   1  0.8652  6.284210 16.797900 11.574200
77   1  0.7375 19.652800  7.781940 25.761700
78   1  0.7680 18.807900  8.080290 13.565900
79   1  0.7993 20.125200 15.823100 25.883500
80   1  0.7845 18.923000 16.515000 12.771800
81   1  0.7578  0.702958  3.402910 26.036500
82   1  0.7456  0.506878  3.394870 12.328800
83   1  0.8349  1.273050 12.068200 25.888400
84   1  0.6843  0.118771 11.820900 12.476200
85   1  0.8248 12.932300  3.285490 25.766100
86   1  0.6854 11.941100  3.736490 12.519600
87   1  0.8101 13.100600 11.445100 25.809700
88   1  0.7939 12.301700 12.155600 12.392300
89   1  0.6965  7.134040  3.184240 26.497600
90   1  0.8148  6.025270  3.841330 11.990300
91   1  0.7906  7.518980 11.663100 26.080900
92   1  0.7538  6.773550 12.554100 12.013700
93   1  0.7919 19.873900  3.196870 26.264500
94   1  0.8088 18.772200  3.457380 12.859800
95   1  0.7819 20.319400 11.827400 25.462600
96   1  0.7755 18.755900 12.203000 13.080300
97   1  0.7398  0.471054  7.471300  7.946090
98   1  0.8113  1.423490  7.740450 22.009400
99   1  0.8297  0.356067 16.597000  7.406250
100  1  0.7290  1.669400 16.157600 21.590900
101  1  0.8156 12.580700  7.805090  8.378790
102  1  0.7419 13.492700  7.534710 21.909600
103  1  0.7433 12.929900 15.988400  8.229350
104  1  0.7188 13.397200 16.089300 21.753100
105  1  0.8385  6.437250  8.035430  8.388410
106  1  0.7450  6.833550  7.437590 21.877100
107  1  0.7270  6.231630 16.752900  7.646400
108  1  0.8451  7.264680 16.091600 21.813500
109  1  0.7107 18.247000  7.429960  8.911810
110  1  0.8117 20.016000  7.986250 21.479900
111  1  0.8151 18.484600 15.999000  8.490830
112  1  0.7429 19.360700 15.762800 21.549300
113  1  0.7989  0.228507  3.607390  8.324280
114  1  0.8037  1.044990  3.523140 22.095600
115  1  0.7826  0.177253 11.807300  8.416820
116  1  0.8467  1.487260 12.004800 21.810300
117  1  0.7379 12.708800  3.160340  7.963240
118  1  0.7499 12.934400  3.370590 21.782100
119  1  0.7874 12.608400 11.667000  8.183290
120  1  0.8106 13.648100 11.505300 21.985900
121  1  0.7593  6.768630  3.660360  7.672410
122  1  0.7997  6.862780  3.251300 22.082800
123  1  0.7553  6.336170 12.339500  8.187750
124  1  0.8634  7.271480 11.783400 21.663700
125  1  0.8118 18.315200  3.353410  8.919340
126  1  0.7671 19.430500  3.487420 22.048900
127  1  0.7826 18.267400 11.797100  8.880440
128  1  0.8105 19.398500 12.101200 21.264500
129  2 -0.8217  6.027170  6.115270 10.285200
130  2 -0.8158  7.001460  5.275880 24.059700
131  2 -0.8081  6.307980 14.711100  9.742330
132  2 -0.7977  7.467020 13.750200 23.525300
133  2 -0.7495 18.298500  5.236730 11.140200
134  2 -0.7678 19.819400  5.686950 23.741500
135  2 -0.7398 18.518800 14.159000 10.778900
136  2 -0.7903 19.597400 13.690700 23.483600
137  2 -0.8033  0.041396  5.717510 10.153900
138  2 -0.8550  1.209200  5.883050 24.031100
139  2 -0.7136  0.277761 14.431000  9.799150
140  2 -0.7520  1.735140 14.153300 24.006200
141  2 -0.7507 12.024300  5.560790 10.537700
142  2 -0.7920 12.614400  5.349330 24.000800
143  2 -0.7900 12.193100 13.939700  9.801010
144  2 -0.7184 13.426500 13.645900 23.918900
145  2 -0.0528 16.935000  3.958210  1.866180
146  2 -0.0499 -1.087160  3.255220 17.823000
147  2  0.0171 19.611600 11.461000  3.926660
148  2 -0.1005 -1.945110 12.089700 17.676400
149  2 -0.0871 11.299200  3.312690  3.706990
150  2 -0.0301 10.835700  3.173030 17.935900
151  2  0.0152  5.402010 11.696800  2.582960
152  2 -0.0910  9.917940 11.449100 17.820000
153  2 -0.0230 21.899800  6.768830  4.394290
154  2 -0.2070 -2.039060  7.955790 17.522500
155  2 -0.0883 17.815100 16.554200  3.344850
156  2 -0.0281  0.944955 16.427800 17.344400
157  2 -0.0091  9.249170  7.725730  4.004650
158  2 -0.0521 15.299500  9.768100 16.318100
159  2 -0.0221  9.512350 13.100500  5.229800
160  2 -0.0332  9.136380 16.798100 18.032200
161  2 -0.8198  6.408230  1.694010  9.679840
162  2 -0.8340  7.295840 18.044300 23.627600
163  2 -0.8232  6.314820 10.033400 10.332700
164  2 -0.7970  7.162440 10.050200 23.858000
165  2 -0.7638 18.731100 18.168600 10.546200
166  2 -0.7510 20.025000 18.366900 24.233500
167  2 -0.7536 18.563300  9.802950 11.103900
168  2 -0.7584 19.809200  9.988760 23.438100
169  2 -0.7674  0.270748 18.454600  9.908110
170  2 -0.7429  1.002890 18.046000 24.415700
171  2 -0.8099  0.353477  9.717150 10.301500
172  2 -0.8764  1.427040 10.073100 23.818300
173  2 -0.8417 12.285600 18.325700 10.204300
174  2 -0.6779 13.575600 18.040200 24.159500
175  2 -0.7887 12.674100  9.993740 10.378700
176  2 -0.8967 13.542800  9.485690 23.626100
177  2 -0.0911 10.205800  5.092180  3.417270
178  2 -0.0269  0.844701  3.196220 17.026400
179  2 -0.1187  3.310980 11.772200  2.756140
180  2  0.0432  0.107134 12.146200 17.324700
181  2 -0.0216 16.170600  2.130720  1.761320
182  2 -0.0068 12.870900  3.579690 17.091200
183  2 -0.0178 17.489200 11.536500  3.042990
184  2 -0.0214 11.508700 12.566000 17.022400
185  2  0.0394  9.547130  9.385460  5.061140
186  2 -0.1422  4.954390  7.996370 17.205100
187  2 -0.0216  8.355190 11.981300  3.855800
188  2 -0.1186  2.969940 16.868300 16.882400
189  2 -0.0144 20.375300  8.179750  3.636730
190  2 -0.1129 15.831900  7.343730 15.843800
191  2 -0.0992 16.360800 15.131300  2.992450
192  2 -0.0121 11.255000 15.858300 17.857400
193  2 -0.4728  0.609869  5.788230  5.605700
194  2 -0.4342  1.021940  5.490740 20.261000
195  2 -0.4548  0.198609 14.311900  5.715870
196  2 -0.4456  1.428670 13.868800 19.605300
197  2 -0.3417 13.025200  5.899740  5.783890
198  2 -0.4220 13.262500  5.695370 19.864900
199  2 -0.3563 13.198300 14.507100  5.045160
200  2 -0.4493 13.596500 13.810400 20.002200
201  2 -0.3569  6.298750  6.180690  5.666850
202  2 -0.4293  6.725690  5.395030 19.534000
203  2 -0.4186  6.155300 13.941200  5.873010
204  2 -0.4310  6.827120 13.984300 19.304200
205  2 -0.4747 18.414500  5.031750  6.570030
206  2 -0.3795 19.833400  4.710080 19.651400
207  2 -0.4209 18.745000 13.647800  6.779670
208  2 -0.5133 19.299100 13.734400 19.230100
209  2 -0.8801 21.450500  7.929610 13.035900
210  2 -0.8344 -1.727450  8.075020 25.810600
211  2 -0.9194 21.767800 16.373600 12.486900
212  2 -0.8969 -1.717860 16.231100 25.836500
213  2 -0.9483  9.164400  8.384760 12.562000
214  2 -0.8710 10.182700  7.378690 25.711400
215  2 -0.8737  9.153310 16.091900 11.983300
216  2 -0.8986 10.549800 16.042100 25.512000
217  2 -0.8182 21.866100  3.490640 12.471900
218  2 -0.9108 -2.128360  3.384640 25.783700
219  2 -0.8554 21.756100 12.012100 12.493800
220  2 -0.9266 -1.438350 12.103600 25.492100
221  2 -0.8410  9.019240  3.404320 12.190200
222  2 -0.9146 10.240000  3.232020 25.395000
223  2 -0.8886  9.435640 11.942700 12.021400
224  2 -0.8382 10.390000 11.715600 25.595400
225  2 -0.5249  1.052470 18.548100  0.822363
226  2 -0.4709 -0.091270 18.198300 14.580900
227  2 -0.4206  1.114930 10.078000  0.693171
228  2 -0.3077  0.387017  9.823160 14.932800
229  2 -0.4053 12.966400 18.477500  0.903916
230  2 -0.4084 12.002200 18.079100 14.421500
231  2 -0.4935 13.221600  9.431110  0.510709
232  2 -0.3844 12.206100 10.225700 14.709700
233  2 -0.4320  7.176920 17.968900  0.827106
234  2 -0.4505  6.723170 18.247800 13.835700
235  2 -0.4529  7.743800  9.513040  0.994167
236  2 -0.3831  6.102630  9.967650 14.455100
237  2 -0.4739 20.213800 17.726400  0.622051
238  2 -0.4676 19.272900  1.476720 15.410000
239  2 -0.4088 20.013200 10.302000  0.479967
240  2 -0.4740 18.726600 10.417400 15.440700
241  2 -0.8096  3.447810  8.024210  8.309270
242  2 -0.8916  4.211300  7.702120 21.585900
243  2 -0.7974  3.044490 16.359000  7.749850
244  2 -0.8598  4.427060 16.360100 22.029200
245  2 -0.8033 15.411100  7.294270  8.774540
246  2 -0.8842 16.905700  7.390820 21.670400
247  2 -0.9615 15.684000 16.028000  8.386950
248  2 -0.9432 16.564500 16.209500 21.658800
249  2 -0.9144  3.217160  3.927060  8.117170
250  2 -0.9058  3.842660  3.232750 22.110500
251  2 -0.7903  3.011800 12.112900  8.343330
252  2 -0.8775  4.394020 12.138700 21.832800
253  2 -0.8577 15.618000  3.270110  8.617610
254  2 -0.8197 16.342000  3.334670 21.653400
255  2 -0.9181 15.474300 11.926500  8.343590
256  2 -0.9185 16.518800 11.751100 21.609900
257  2 -0.3514  6.972690  5.767580  1.174050
258  2 -0.3555  6.114380  5.232270 14.447700
259  2 -0.3935  7.758060 13.976500  0.675883
260  2 -0.4421  6.624100 14.167000 14.061100
261  2 -0.4183 20.095500  5.659620  0.909751
262  2 -0.4995 18.706600  5.117190 15.006400
263  2 -0.4159 19.854800 13.978000  0.424897
264  2 -0.4368 18.703300 14.585800 14.886100
265  2 -0.4179  1.295090  5.952870  0.573785
266  2 -0.3399  0.298835  5.899050 14.733700
267  2 -0.4549  1.349810 13.678000  0.849238
268  2 -0.4391  0.259020 14.019400 14.348100
269  2 -0.3857 13.108400  5.212950  0.607011
270  2 -0.4660 12.199800  5.960000 14.690100
271  2 -0.4480 13.296300 13.539600  0.778625
272  2 -0.4663 12.108700 14.510900 14.097700
273  2 -0.4533 21.578900  3.625820  8.713170
274  2 -0.4378 -1.855490  3.784010 21.917700
275  2 -0.4563 21.416100 11.977300  8.464440
276  2 -0.4586 -1.110120 12.389200 21.736900
277  2 -0.4280  9.638970  4.045870  8.026540
278  2 -0.4727  9.646680  2.889630 21.485600
279  2 -0.4590  9.444700 11.716200  7.972280
280  2 -0.4000 10.567000 11.729700 21.315000
281  2 -0.2249 21.791500  8.564170  7.330290
282  2 -0.4456 -1.694160  7.370690 21.926400
283  2 -0.3857 21.651200 16.310600  8.265420
284  2 -0.3766 -1.310040 16.037100 21.478500
285  2 -0.4877  9.415350  7.856800  8.392250
286  2 -0.4612 10.373300  7.523750 21.540000
287  2 -0.5085  9.658090 16.275500  7.878130
288  2 -0.5293  9.882270 15.932600 21.249500
289  2 -0.3991  6.347060  2.333940  5.266710
290  2 -0.3332  6.824530  1.328800 19.508000
291  2 -0.4149  6.317940  9.934840  6.361190
292  2 -0.4407  7.112580 10.035100 19.645100
293  2 -0.3913 18.762000 18.194800  6.690340
294  2 -0.4450 19.709600 17.690800 19.864400
295  2 -0.4869 18.267400  9.595080  6.985240
296  2 -0.5019 19.743300  9.794740 19.391500
297  2 -0.4842 -0.082368  2.027350  5.979240
298  2 -0.4935  0.982220  1.829890 20.034500
299  2 -0.4347  0.305205  9.989810  5.944030
300  2 -0.4682  1.671230 10.186400 19.882200
301  2 -0.3553 12.679400 17.878900  5.512450
302  2 -0.4371 13.725600  1.551060 19.689000
303  2 -0.4991 12.791900  9.413640  6.132670
304  2 -0.3362 13.779800  9.814550 19.443200
305  2 -0.5685  3.212200  3.835870 12.254300
306  2 -0.4168  3.791660  2.956700 26.232500
307  2 -0.4285  3.270170 12.373700 12.518900
308  2 -0.4619  4.635180 12.329900 26.159800
309  2 -0.3908 15.830200  2.804270 13.173500
310  2 -0.4161 16.478500  3.099680 25.741700
311  2 -0.4247 15.174400 12.849200 12.758900
312  2 -0.3287 16.361100 11.589900 25.611500
313  2 -0.3634  3.617490  7.610640 12.782800
314  2 -0.5672  4.043140  7.663640 26.099300
315  2 -0.5130  3.551080 16.876200 11.897100
316  2 -0.4794  4.759360 16.149200 26.024100
317  2 -0.4380 15.207100  7.875030 12.644700
318  2 -0.4765 16.587300  7.673050 25.871100
319  2 -0.4157 15.058900 16.437400 12.540000
320  2 -0.4392 16.776100 15.464000 25.255900

