Generated by pymatgen.io.lammps.data.LammpsData

360  atoms

  2  atom types

0.000000 16.871067  xlo xhi
0.000000 22.058404  ylo yhi
0.000000 29.928687  zlo zhi

Masses

1  208.9804
2   78.9600

Atoms

1    1  0.8677  2.028670 13.354300 21.917800
2    1  0.8155  4.875900 17.083300 22.157500
3    1  0.6874  2.151520  5.945150 21.371700
4    1  0.7423  3.896640  9.921560 21.890500
5    1  0.7291  6.476740 13.743100 21.901000
6    1  0.7200  8.425480 16.988600 22.095900
7    1  0.7969  2.042170 20.936200 21.828000
8    1  0.7862  3.866040  2.938000 22.086700
9    1  0.8349  6.076240  6.027180 21.711800
10   1  0.7512  8.136890 10.095000 21.810100
11   1  0.8664 10.838700 13.870500 22.145100
12   1  0.8215 13.108300 17.547700 22.271600
13   1  0.7726  6.470090 21.273000 22.043300
14   1  0.7621  8.807310  2.210270 21.872600
15   1  0.8085 10.683000  6.189580 21.673100
16   1  0.7968 12.914600  9.504430 21.530400
17   1  0.7547 14.660800 13.608200 21.718000
18   1  0.8083  0.345688 17.239200 22.086500
19   1  0.7729 10.270100 21.010600 21.617500
20   1  0.7082 12.766400  2.554530 21.236900
21   1  0.7549 14.881800  6.582470 22.457000
22   1  0.7706  0.179785  9.841970 21.486000
23   1  0.8415 14.952200 21.282700 22.664000
24   1  0.7207 16.566700  2.973080 22.032100
25   1  0.7429  2.071340 13.727900 28.782100
26   1  0.8089  4.266410 17.656000 27.439900
27   1  0.7911  2.650990  6.296500 28.249000
28   1  0.8198  4.029570 10.703200 28.396400
29   1  0.6793  6.024210 13.813400 28.361700
30   1  0.7685  8.713110 17.709000 28.197300
31   1  0.8118  2.077040 21.450600 27.983200
32   1  0.8555  4.278970  2.764240 28.127000
33   1  0.6935  6.298420  6.318360 28.694400
34   1  0.8502  8.572600 10.007100 27.833300
35   1  0.7163  9.708130 13.702600 28.736100
36   1  0.7272 12.998500 17.943500 28.217100
37   1  0.7536  6.324130 20.700800 27.726000
38   1  0.7568  8.618260  2.731890 27.756100
39   1  0.6948 10.605600  6.051220 28.318400
40   1  0.7537 12.347400  9.980070 28.621600
41   1  0.8377 14.830500 14.200000 27.925100
42   1  0.7481 -0.140396 17.961600 27.723900
43   1  0.7869 10.548000 21.467200 27.855300
44   1  0.7100 12.677100  3.335150 28.015700
45   1  0.6967 14.887500  6.927400 28.583500
46   1  0.7450  0.016295 10.495300 28.373300
47   1  0.8267 14.959400 21.503400 28.045900
48   1  0.8158  0.187620  3.724770 28.295300
49   1  0.7510  2.111910 15.977900  1.820030
50   1  0.7288  4.257600 19.841900  1.425510
51   1  0.8493  2.169040  8.983950  2.387160
52   1  0.6310  4.384610 13.166700  1.814820
53   1  0.7795  6.239130 16.406400  1.189870
54   1  0.8023  8.211230 20.433200  1.781800
55   1  0.7841  2.046110  1.551840  2.074730
56   1  0.7633  4.828610  5.369800  1.785730
57   1  0.7477  6.329770  8.757760  1.455160
58   1  0.6598  7.916210 12.506400  2.255780
59   1  0.8296 11.036100 16.940000  1.475400
60   1  0.6878 12.753100 20.520000  1.963140
61   1  0.8201  5.635540  1.456870  1.857480
62   1  0.7429  9.062340  5.545910  2.312200
63   1  0.8320 10.525800  8.959990  2.074460
64   1  0.7433 12.903400 12.652300  1.937380
65   1  0.8159 14.727900 16.210900  1.442600
66   1  0.7987  0.050146 20.079600  1.638640
67   1  0.7958 10.727300  1.393300  2.598730
68   1  0.7758 13.006000  5.080610  2.077020
69   1  0.7017 14.949800  8.706560  2.486810
70   1  0.7124 16.931100 12.307300  1.815160
71   1  0.6937 14.577500  1.453400  1.867980
72   1  0.7092  0.731350  5.137560  1.902440
73   1  0.8201  1.714770 16.085300  8.166290
74   1  0.7855  4.260320 19.943500  8.259100
75   1  0.8323  2.156210  8.755800  8.692170
76   1  0.7091  4.854400 12.288600  9.172660
77   1  0.8251  6.083700 16.201600  8.140350
78   1  0.6475  8.371110 19.673800  8.764240
79   1  0.7654  1.681160  1.076850  8.225570
80   1  0.8768  3.996460  4.951120  8.339650
81   1  0.8091  5.715020  8.299960  7.965160
82   1  0.7967  8.560260 12.267600  8.308960
83   1  0.7701 10.330100 15.533700  8.898670
84   1  0.7197 12.614600 19.308400  8.003100
85   1  0.7477  6.085210  1.510260  7.967700
86   1  0.7589  8.594590  4.468660  8.002970
87   1  0.7706 10.404900  8.543170  8.445250
88   1  0.7604 12.222400 12.480400  8.127530
89   1  0.6809 14.131300 15.192600  8.137170
90   1  0.7323  0.257785 19.471900  8.456350
91   1  0.7382 10.245800  1.062710  8.784910
92   1  0.6863 12.391600  5.008570  8.112940
93   1  0.8454 14.875300  8.202870  8.617420
94   1  0.8108  0.112414 11.966700  8.309400
95   1  0.6820 14.416600  0.465909  7.979870
96   1  0.8318  0.274313  5.028200  8.056320
97   1  0.7478  0.174959 15.056100 11.657300
98   1  0.6594  1.743980 18.341400 12.055000
99   1  0.8242 16.818300  7.296480 12.056600
100  1  0.7933  1.868170 11.161800 11.750600
101  1  0.7442  4.219910 15.446400 11.928600
102  1  0.7837  5.823480 18.761900 11.343200
103  1  0.6873 16.703500 22.116600 11.879400
104  1  0.8201  2.398640  4.129480 11.934800
105  1  0.7125  4.502160  7.159410 12.712000
106  1  0.6703  6.226410 11.034800 12.226900
107  1  0.7147  8.591190 14.470200 12.649000
108  1  0.8630 10.392900 18.674100 12.355400
109  1  0.8303  4.391870  0.483502 11.214500
110  1  0.8069  6.332480  3.735760 12.175800
111  1  0.7569  8.587570  7.123670 11.535900
112  1  0.7227 11.270000 10.734100 11.438000
113  1  0.6821 12.998800 14.324400 11.851100
114  1  0.8099 14.512600 18.337500 12.735500
115  1  0.7275  8.143540 -0.009528 11.529700
116  1  0.7631 10.551300  3.582170 12.358200
117  1  0.7501 13.166400  7.377420 12.164700
118  1  0.7523 15.188300 11.004300 12.113400
119  1  0.7457 13.329500  0.322152 11.246500
120  1  0.8127 14.839600  3.665370 11.657100
121  1  0.7642 -0.016073 15.209900 18.340300
122  1  0.7158  2.276410 18.538400 17.646000
123  1  0.7928  0.110657  7.204210 17.924400
124  1  0.7517  2.481640 10.969000 17.951000
125  1  0.7897  4.149860 14.446500 18.418400
126  1  0.7923  6.705360 18.161400 18.173900
127  1  0.6353  0.413619  0.042827 18.434400
128  1  0.7224  2.710200  3.588290 18.558200
129  1  0.7001  4.431400  7.066340 17.854600
130  1  0.7055  6.354160 11.070200 18.585900
131  1  0.8758  8.994310 14.487400 18.317000
132  1  0.6880 11.016800 18.264900 18.481000
133  1  0.6898  4.989870 21.951600 18.206500
134  1  0.7452  6.741790  3.254360 18.064300
135  1  0.7753  8.311720  7.526390 18.620200
136  1  0.8956 10.631300 10.828100 18.610200
137  1  0.8121 12.663400 14.681800 18.995100
138  1  0.6835 14.933800 18.672100 18.523400
139  1  0.8061  8.763220 21.731300 17.811300
140  1  0.7258 10.481900  3.989570 18.336800
141  1  0.7658 12.354200  7.160750 18.496600
142  1  0.8019 15.087100 11.033500 17.968500
143  1  0.8086 12.838000 21.961800 18.693100
144  1  0.7098 15.074000  3.081240 18.227200
145  2 -0.8253 16.486400 14.862300  0.248448
146  2 -0.7626  1.988930 18.814800 29.451700
147  2 -0.7988  0.579591  7.644530  0.204184
148  2 -0.9158  2.465870 11.630500  0.547430
149  2 -0.9606  4.154750 15.424800 29.948900
150  2 -0.8928  6.188730 18.545100 29.460600
151  2 -0.7960 -0.432565  0.536552 -0.414274
152  2 -0.8801  2.614560  3.965370 -0.145372
153  2 -0.7776  3.952430  8.328630 30.149500
154  2 -0.8785  6.422590 11.238000 29.275500
155  2 -0.8027  8.842450 15.584300  0.424856
156  2 -0.8530 10.362000 18.999900  0.101074
157  2 -0.8589  3.767940  0.667111  0.301255
158  2 -0.8047  6.483330  3.967410 30.441200
159  2 -0.8279  8.481350  7.754160 29.552700
160  2 -0.8143 10.487100 11.136600  0.457269
161  2 -0.7531 12.607500 15.112000 29.475400
162  2 -0.8795 14.834000 19.130000 -0.188944
163  2 -0.7380  7.905170  0.664077  0.079306
164  2 -0.8020 10.820700  3.902420  1.016560
165  2 -0.8384 12.410200  7.586090  0.445575
166  2 -0.8303 14.654800 11.746100 -0.052525
167  2 -0.7934 12.266900  0.610948 29.345100
168  2 -0.8411 14.922700  4.345800  0.106229
169  2 -0.3726  1.222770 16.023900 26.597300
170  2 -0.4390  3.994310 20.047600 26.315400
171  2 -0.2675  1.643410  9.225360 26.629100
172  2 -0.3650  3.875670 12.964300 26.597200
173  2 -0.4136  6.815310 16.180500 26.521300
174  2 -0.3470  8.470910 20.356600 25.908600
175  2 -0.3385  2.225450  2.003150 26.669100
176  2 -0.3854  4.699810  5.376020 26.550700
177  2 -0.2498  6.577100  8.881860 26.334300
178  2 -0.3038  8.677030 12.579100 26.372800
179  2 -0.2351 10.871600 15.723000 26.513700
180  2 -0.4242 12.369800 19.890600 26.503900
181  2 -0.4280  6.019910  1.410320 26.735500
182  2 -0.3596  8.344120  5.018010 26.513700
183  2 -0.3385 10.763100  8.564100 26.722900
184  2 -0.1503 12.143200 11.908500 26.131500
185  2 -0.3598 14.657000 16.264300 26.087500
186  2 -0.4076 17.070300 20.809200 26.137200
187  2 -0.3782 10.739300  2.060450 26.110100
188  2 -0.3107 13.202200  5.965350 26.265100
189  2 -0.2898 14.301400  9.100110 26.514700
190  2 -0.3931  0.171795 12.550900 26.910500
191  2 -0.2892 14.965500  1.952470 26.321000
192  2 -0.4075  0.543748  5.642580 26.739400
193  2 -0.3583 16.903700 13.980000 23.417500
194  2 -0.4060  2.665910 18.581900 23.295500
195  2 -0.2812  0.457308  7.393830 23.845700
196  2 -0.3497  2.075310 10.904800 23.469800
197  2 -0.4308  4.151470 15.177400 23.457400
198  2 -0.3806  6.550860 18.750300 23.859500
199  2 -0.3009  0.593384  1.063670 23.865100
200  2 -0.2440  2.690300  3.831130 24.332100
201  2 -0.2461  4.353730  7.805900 24.104300
202  2 -0.3706  6.309790 11.746300 23.741400
203  2 -0.3654  8.985330 14.766900 23.900000
204  2 -0.3270 10.437900 18.632500 23.590700
205  2 -0.3637  4.031410  0.010462 23.328100
206  2 -0.2916  6.337040  3.804440 23.704500
207  2 -0.1980  8.187930  7.496970 23.739200
208  2 -0.2518 10.146100 11.237300 23.591800
209  2 -0.3838 12.918200 14.916300 23.670100
210  2 -0.4477 15.122900 18.546700 23.753700
211  2 -0.4367  8.833330  0.609960 23.667300
212  2 -0.2284 10.654900  4.836030 24.245100
213  2 -0.3669 12.049100  8.263780 23.413300
214  2 -0.3035 15.444200 10.624900 23.497400
215  2 -0.3650 12.799100  0.281223 23.660100
216  2 -0.4343 14.934200  4.441840 23.684500
217  2 -0.7540  2.137340 13.632200 10.221600
218  2 -0.8827  3.949370 17.282500  9.701870
219  2 -0.8127  2.085090  6.084480 10.245100
220  2 -0.8507  4.102620  9.805650 10.486500
221  2 -0.8183  6.638680 13.925100  9.847280
222  2 -0.7308  8.724570 16.971600 10.594600
223  2 -0.9303  2.039110 20.947000  9.709030
224  2 -0.8697  4.388570  2.827420 10.298200
225  2 -0.7558  6.013540  6.192340  9.937440
226  2 -0.7891  8.487700  9.672660  9.906600
227  2 -0.9730 10.722200 13.234300 10.027600
228  2 -0.7055 12.311400 17.270800 10.630600
229  2 -1.0261  5.774450 20.935400 10.024000
230  2 -0.8713  8.105640  2.563370  9.976070
231  2 -0.8491 10.585000  5.999850 10.585000
232  2 -0.8474 12.825100  9.561320  9.702890
233  2 -0.8620 15.298200 13.078300 10.326900
234  2 -0.8366 -0.234721 16.870000  9.609450
235  2 -0.7807 10.716900 20.715200 10.264700
236  2 -0.8347 12.713900  2.353680 10.020500
237  2 -0.8405 15.165500  5.901360 10.279900
238  2 -0.8899 16.939700  9.357770 10.147200
239  2 -0.7957 14.724900 19.979200 10.457900
240  2 -0.7886 -0.295502  2.775120  9.460910
241  2 -0.2690 16.686300 14.857600  6.379400
242  2 -0.2015  2.049960 18.465600  5.945830
243  2 -0.3740 16.634600  7.869220  6.785740
244  2 -0.3392  1.920800 10.904800  6.733630
245  2 -0.3853  4.373410 14.352900  7.061220
246  2 -0.2951  6.057620 18.276400  6.374150
247  2 -0.3750  0.565055 21.770800  6.429840
248  2 -0.3718  2.256370  3.277230  6.618680
249  2 -0.5305  3.534180  7.220930  7.156690
250  2 -0.2420  6.507460 11.321500  6.107770
251  2 -0.3095  8.649820 14.929000  6.812390
252  2 -0.2760  9.780620 18.244300  6.721970
253  2 -0.2916  4.540090 -0.250140  6.063690
254  2 -0.4337  5.854140  3.887420  6.717690
255  2 -0.3753  8.268050  7.501050  6.674110
256  2 -0.4054 10.236600 11.027800  6.752380
257  2 -0.4553 12.102600 14.997900  6.614430
258  2 -0.2510 15.115300 17.954300  6.258810
259  2 -0.2877  8.116680 -0.223940  6.300200
260  2 -0.4512 10.332800  3.006310  6.823430
261  2 -0.2391 12.808700  7.929160  6.270060
262  2 -0.3496 14.674800 10.781700  7.106290
263  2 -0.4547 12.265600  0.084433  6.786780
264  2 -0.2161 14.823500  4.105140  6.095630
265  2 -0.2172  1.797760 13.368800  4.310070
266  2 -0.2530  4.361620 17.328100  3.678470
267  2 -0.4353  2.979000  6.665830  3.364290
268  2 -0.3397  4.172300 10.341600  3.525470
269  2 -0.3560  6.588950 14.764700  3.550460
270  2 -0.2037  8.172980 18.080600  3.273230
271  2 -0.3429  2.196430 20.845300  3.344660
272  2 -0.3654  3.801420  3.056040  3.624640
273  2 -0.4091  6.686740  6.973850  3.385940
274  2 -0.3527  8.259840  9.362080  3.551400
275  2 -0.2521 10.435400 13.768300  3.710740
276  2 -0.4609 13.063000 17.727800  3.051520
277  2 -0.3951  6.049750 21.048500  3.261970
278  2 -0.2452  8.678830  2.478020  4.215980
279  2 -0.3514 11.089200  6.862110  4.066920
280  2 -0.3772 12.744400 10.149700  3.551550
281  2 -0.3204 15.253900 14.165300  3.613570
282  2 -0.3914 16.965900 17.300400  2.851260
283  2 -0.4442 10.466200 20.970800  3.506370
284  2 -0.3584 12.536400  2.554500  4.116930
285  2 -0.4034 15.221800  6.053570  3.722460
286  2 -0.3417 16.561700 10.445100  4.064940
287  2 -0.4810 15.324500 21.505800  3.343910
288  2 -0.3137  0.019324  2.606740  3.847230
289  2 -0.7419  2.629150 15.899600 19.891500
290  2 -0.7322  4.890670 19.279100 20.218900
291  2 -0.8703  1.994590  8.667510 20.009700
292  2 -0.8839  3.923810 12.262500 20.282100
293  2 -0.8234  6.555300 15.497600 19.967600
294  2 -0.8239  8.562200 19.563600 19.942100
295  2 -0.8905  2.569950  1.560770 20.290700
296  2 -0.9598  4.434450  4.938250 20.181200
297  2 -0.9075  6.491230  8.556650 19.948100
298  2 -0.7962  8.968050 12.394300 20.109800
299  2 -0.8942 10.823700 15.798300 20.354500
300  2 -0.7852 12.678100 19.758400 20.708200
301  2 -0.8533  7.124560  1.144570 19.834000
302  2 -0.8081  8.224450  5.066870 20.593100
303  2 -0.8931 10.563100  8.476380 20.215500
304  2 -0.8217 12.432200 12.339800 20.480900
305  2 -0.8575 15.209200 16.222000 20.422000
306  2 -0.8077 16.911100 19.821800 20.624200
307  2 -0.8502 10.875200  1.204540 19.605500
308  2 -0.9388 12.372300  4.836440 20.055800
309  2 -0.8646 14.656400  8.768930 19.865300
310  2 -0.8075  0.063961 12.512100 20.119100
311  2 -0.8955 14.823200  0.871340 20.230900
312  2 -0.8747 16.831800  4.990710 20.301100
313  2 -0.3098  1.942570 13.505400 16.431600
314  2 -0.3708  4.443160 17.483100 16.523300
315  2 -0.3697  2.564750  5.615120 16.323600
316  2 -0.4506  4.440520  9.671650 16.372100
317  2 -0.4236  7.112470 13.223800 16.895900
318  2 -0.3635  8.741520 16.872700 16.471300
319  2 -0.2767  2.166370 21.131800 15.924400
320  2 -0.2930  4.336420  1.963410 16.394700
321  2 -0.2917  6.075150  5.111090 15.869100
322  2 -0.3559  8.636000  9.688970 16.957800
323  2 -0.4114 10.903400 13.289500 17.396900
324  2 -0.3314 12.776100 16.452700 16.627700
325  2 -0.3261  6.340800 20.651200 16.239900
326  2 -0.3835  8.442420  2.072070 16.447800
327  2 -0.3779 10.208400  6.106050 16.501300
328  2 -0.3346 12.296400  9.464300 16.898500
329  2 -0.3516 14.204600 13.573900 17.104600
330  2 -0.5156 16.575900 17.601700 16.710800
331  2 -0.4216 11.128900 20.447200 16.690700
332  2 -0.2744 12.509400  1.864680 16.558100
333  2 -0.3273 15.392800  5.950580 16.577300
334  2 -0.3807 -0.000702  9.919480 16.395400
335  2 -0.2842 15.080500 21.348900 16.341600
336  2 -0.2361  0.249614  2.809960 16.258600
337  2 -0.4122  2.135210 15.863600 13.702700
338  2 -0.3139  4.438660 19.557700 13.309000
339  2 -0.3539  1.809240  8.837810 13.940500
340  2 -0.3957  3.573580 12.763700 13.210600
341  2 -0.3358  6.344810 16.551600 13.589100
342  2 -0.4281  7.873040 19.734600 12.971100
343  2 -0.2500  2.110520  1.548350 13.449300
344  2 -0.3948  4.355090  4.433850 13.798800
345  2 -0.3738  7.235410  8.745980 13.674800
346  2 -0.1797  8.792380 11.766300 14.486000
347  2 -0.2407 10.640600 15.433400 14.459300
348  2 -0.3334 12.697300 20.372300 13.372300
349  2 -0.2930  5.733920  1.430120 13.511400
350  2 -0.3375  8.232160  4.392060 14.101100
351  2 -0.3544 11.306900  8.537510 13.425200
352  2 -0.3871 13.198700 12.044900 13.590800
353  2 -0.2777 14.593500 15.290100 14.146500
354  2 -0.4091 16.411700 19.958700 13.810300
355  2 -0.3553 10.384100  1.022310 13.239800
356  2 -0.2935 13.108400  4.821310 13.937900
357  2 -0.3762 14.994600  8.206340 13.990000
358  2 -0.2958  0.196680 12.300700 13.766900
359  2 -0.3584 15.190000  1.713310 13.487400
360  2 -0.3839 -0.074305  4.941790 13.356500

