Generated by pymatgen.io.lammps.data.LammpsData

320  atoms

  2  atom types

0.000000 24.637781  xlo xhi
0.000000 17.058433  ylo yhi
0.000000 27.370788  zlo zhi

Masses

1  208.9804
2   78.9600

Atoms

1    1  0.6660 -1.539140  1.239390  0.921392
2    1  0.7165 -2.347210  1.461670 14.263800
3    1  0.6762 22.180500 10.300500  0.915846
4    1  0.7893 -2.096960 10.066900 14.623100
5    1  0.6368  9.794910 18.190000  0.481964
6    1  0.6640  9.544610  1.599300 14.244600
7    1  0.7754  9.993270  9.539060  0.509634
8    1  0.7429  9.700930  9.806410 14.499100
9    1  0.7996  3.570320  5.485370  9.903690
10   1  0.8308  3.879380  5.855960 24.028500
11   1  0.8038  3.829840 14.372400 10.449200
12   1  0.7503  3.848760 14.208600 23.639400
13   1  0.7563 15.750700  5.914640 10.741400
14   1  0.7680 16.286900  5.516990 23.990800
15   1  0.7929 15.966800 14.013800 10.924400
16   1  0.7158 16.315700 14.111900 23.932300
17   1  0.7016  3.964960  5.589620  5.742900
18   1  0.8152  3.768860  5.683420 19.182400
19   1  0.7354  4.217680 14.380000  5.959430
20   1  0.7182  3.746550 14.465000 20.010800
21   1  0.7146 15.820900  5.587710  6.172930
22   1  0.7783 16.710900  5.488210 19.953800
23   1  0.6496 15.875100 14.243100  6.892080
24   1  0.6822 16.107700 13.996400 19.680300
25   1  0.6973 22.255800 18.358300 10.207500
26   1  0.7854 -2.197410  1.703510 23.727400
27   1  0.7496 -2.682650  9.908650 10.507500
28   1  0.7708 -2.268400  9.812840 24.505100
29   1  0.7298  9.644850  1.380800 10.287500
30   1  0.7418 10.267200 18.314700 24.090700
31   1  0.7643  9.857060 10.412000 10.029300
32   1  0.6230  9.756140  9.693220 23.042900
33   1  0.7097 -1.834190  5.389420  1.122370
34   1  0.7477 -1.953610  5.974350 14.503500
35   1  0.7178 -2.273330 14.382900  0.804692
36   1  0.7397 -2.335790 14.355000 14.375400
37   1  0.7513  9.635200  5.532170  0.315864
38   1  0.6713  9.792820  5.687260 14.412400
39   1  0.7071 10.497100 14.115000  0.379861
40   1  0.7644 10.104300 14.261400 14.881700
41   1  0.7433 22.060700  5.043080 10.262700
42   1  0.7655 -2.204340  5.737740 24.027100
43   1  0.6852 22.182400 13.954900 10.263900
44   1  0.7473 22.304300 14.555500 23.941300
45   1  0.7932  9.898610  6.112580 10.085700
46   1  0.7165 10.220700  6.008360 23.266900
47   1  0.7376  9.980340 14.411600 10.480300
48   1  0.7788  9.715190 13.896000 23.572700
49   1  0.7035  4.081320  1.330000  6.149800
50   1  0.6754  4.134480 18.432700 19.349800
51   1  0.6944  3.838920  9.443750  6.019690
52   1  0.7688  3.440200  9.813720 18.989600
53   1  0.6795 16.619000 18.078200  6.599130
54   1  0.7373 16.263100 18.704500 19.864600
55   1  0.7080 16.113500 10.015000  6.234710
56   1  0.7512 16.250100  9.851570 20.141100
57   1  0.7328  3.497290  1.539160 10.764500
58   1  0.7891  4.013900  1.704420 23.535800
59   1  0.7582  3.614560 10.049400 10.393700
60   1  0.7531  3.764320  9.961040 24.007400
61   1  0.7680 16.309700  1.282200 11.177100
62   1  0.7739 16.075800 18.401200 23.698700
63   1  0.7833 15.922200  9.847090 10.751500
64   1  0.7483 16.270000  9.484660 24.373700
65   1  0.7634  1.265480  7.962200 26.486400
66   1  0.7825  0.625573  7.977590 12.182000
67   1  0.8010  0.918615 16.749800 25.997400
68   1  0.7799  0.215792 16.329800 12.052000
69   1  0.8167 12.799400  7.600240 25.938600
70   1  0.8168 12.607900  7.709670 12.373900
71   1  0.7654 13.257300 16.296600 25.876900
72   1  0.7648 12.407100 16.523800 12.863700
73   1  0.7760  7.437240  7.682850 25.656300
74   1  0.8224  6.999000  8.134620 12.483800
75   1  0.7613  6.763460 16.328200 26.222000
76   1  0.7572  6.767870 16.264300 12.596200
77   1  0.7637 19.725000  7.369740 26.746900
78   1  0.7541 19.391400  7.526080 12.927200
79   1  0.8049 19.383900 16.099800 26.362500
80   1  0.7332 19.245000 16.343300 13.045700
81   1  0.7847  0.800820  3.595150 26.089200
82   1  0.7727  0.462627  3.721780 12.096900
83   1  0.7786  0.431807 12.228600 26.196300
84   1  0.7690  0.250380 12.267500 12.100300
85   1  0.8548 13.058600  3.426920 25.756400
86   1  0.7762 12.614000  3.488390 12.253700
87   1  0.7858 13.156500 12.010400 26.175900
88   1  0.8215 12.926100 11.880600 12.626200
89   1  0.7403  6.761990  3.239050 25.986600
90   1  0.7658  6.844940  3.725940 12.635000
91   1  0.7942  6.863480 11.798000 26.039200
92   1  0.7618  7.191850 12.215000 12.446500
93   1  0.8255 19.618700  3.404680 26.213600
94   1  0.7942 19.350800  3.456190 12.840600
95   1  0.8163 19.679300 11.914300 26.001300
96   1  0.8236 19.409400 11.978100 12.814200
97   1  0.8117  0.756047  7.780580  8.230090
98   1  0.7677  0.700843  7.832690 21.737600
99   1  0.7715  1.304540 16.527700  8.210330
100  1  0.8036  1.006930 16.544200 22.391000
101  1  0.7613 12.944800  7.768510  8.405580
102  1  0.8111 13.364800  7.509960 21.748600
103  1  0.8519 13.259900 16.474300  8.300500
104  1  0.8196 13.151000 16.002100 21.677400
105  1  0.7820  6.924470  7.774290  8.237790
106  1  0.7570  6.788810  7.640090 21.304800
107  1  0.8153  6.814700 16.376800  8.335610
108  1  0.7642  6.998630 16.339900 21.093800
109  1  0.7817 18.803100  7.762620  8.944170
110  1  0.8177 19.166200  7.807820 22.065500
111  1  0.6905 19.056600 15.937900  8.607210
112  1  0.7125 18.790600 16.080400 21.940900
113  1  0.8130  0.929173  3.320460  7.687770
114  1  0.7649  0.830772  3.553920 21.684100
115  1  0.7767  0.834818 11.734000  7.917850
116  1  0.7537  0.737412 11.990600 22.162200
117  1  0.7689 12.939700  3.812340  8.230880
118  1  0.8514 13.289000  3.364110 21.890600
119  1  0.7892 13.302200 11.967200  8.482790
120  1  0.8098 13.648000 12.140200 22.109900
121  1  0.7624  6.613580  3.389440  8.109480
122  1  0.7863  6.945490  3.755400 21.597300
123  1  0.7460  6.865940 12.225300  7.997940
124  1  0.7430  6.499030 11.634500 21.251500
125  1  0.7505 18.768400  3.675960  8.444370
126  1  0.7675 18.914300  3.492390 21.970400
127  1  0.8087 18.819400 11.712200  8.334820
128  1  0.8243 19.363200 11.864700 21.982000
129  2 -0.6950  6.895840  5.917560 10.367700
130  2 -0.7844  7.037310  6.107410 23.533400
131  2 -0.8127  6.840430 14.448700 10.385100
132  2 -0.6870  6.742350 13.734100 23.617300
133  2 -0.7914 18.833500  5.484160 10.857300
134  2 -0.7568 19.524800  5.688800 24.340700
135  2 -0.7704 18.794100 13.979100 10.826800
136  2 -0.8056 19.316100 13.959500 23.852300
137  2 -0.7630  0.554535  5.373550  9.849110
138  2 -0.7546  0.829190  5.920470 24.061600
139  2 -0.7680  0.841164 14.286000 10.227000
140  2 -0.7953  0.990915 14.594700 24.393900
141  2 -0.8636 12.724800  5.747980 10.425200
142  2 -0.8101 13.268800  5.509440 23.863100
143  2 -0.7243 12.971700 14.238300 10.594300
144  2 -0.7977 13.322100 13.868300 24.014400
145  2 -0.0325 19.167700  3.346330  4.161930
146  2 -0.0371  0.611755  3.354620 17.151600
147  2 -0.0815 20.443800 11.355800  3.946310
148  2 -0.0804 -0.364943 12.299600 17.622100
149  2 -0.0975  8.556840  3.702250  3.363700
150  2 -0.0514 10.822500  4.237290 17.870700
151  2 -0.0396  6.920040 11.606600  3.010910
152  2 -0.1364 10.627600 11.636700 17.401500
153  2 -0.1072 22.420700  7.789890  4.086660
154  2 -0.2287 -2.421020  8.429490 16.779800
155  2 -0.0297 19.986100 15.897900  4.164330
156  2 -0.0300 -0.440001 16.337700 17.469100
157  2 -0.0108  9.312900  7.059590  4.735370
158  2 -0.0040 14.387200  7.577870 17.040300
159  2  0.0204 10.102500 15.373600  4.544090
160  2 -0.1579 10.558500 16.312100 17.319800
161  2 -0.7864  6.781960  1.561710 10.361500
162  2 -0.7266  6.761840 18.295000 23.464200
163  2 -0.7889  7.042300 10.142300 10.160000
164  2 -0.7974  6.468360  9.705370 23.243300
165  2 -0.8023 19.011300  1.568390 10.873100
166  2 -0.7316 19.615200  1.499790 24.118000
167  2 -0.7958 19.022000  9.986150 10.720800
168  2 -0.7484 19.307900  9.740780 24.102500
169  2 -0.8239  0.670315 18.621900 10.047600
170  2 -0.8400  0.927172  1.740070 23.881500
171  2 -0.8275  0.559069  9.839690 10.076000
172  2 -0.7987  0.641348 10.094400 24.163800
173  2 -0.7068 13.101800 18.553000 10.399000
174  2 -0.8033 13.233500  1.287980 23.831400
175  2 -0.8090 12.644200  9.880960 10.329500
176  2 -0.7429 13.365500  9.813150 24.065200
177  2 -0.0440  6.459700  3.416260  2.864810
178  2 -0.1200  2.700880  3.574600 16.640300
179  2 -0.1321  4.585450 11.804700  3.136040
180  2 -0.0531  1.679090 12.545500 16.678000
181  2 -0.1008 17.219800  2.974770  3.608450
182  2  0.0400 12.766300  3.570130 17.288900
183  2 -0.0155 18.433700 12.401000  2.979570
184  2 -0.0069 12.733700 11.810400 17.397200
185  2 -0.0683  7.656720  7.472760  3.376400
186  2 -0.1996  2.897800  7.652470 16.994300
187  2 -0.0599 10.391100 13.442000  3.882370
188  2 -0.0231  1.676180 16.566900 16.531400
189  2 -0.0134 20.395700  7.536700  4.384720
190  2 -0.0878 15.986900  5.955740 16.604400
191  2 -0.0787 17.909000 16.139000  3.517680
192  2 -0.0399 12.712800 16.540400 17.267100
193  2 -0.4556  1.247500  5.887550  5.607160
194  2 -0.4108  1.099670  5.667600 19.240000
195  2 -0.3827  1.406530 14.295700  5.794600
196  2 -0.4571  1.062880 14.810600 20.166500
197  2 -0.4342 13.232100  5.781720  5.705610
198  2 -0.4220 13.741600  5.539130 19.897200
199  2 -0.4066 13.047600 14.466300  6.487140
200  2 -0.4931 13.223400 13.906200 19.994300
201  2 -0.4287  6.740970  5.398520  5.927220
202  2 -0.4509  6.748090  5.873530 19.152800
203  2 -0.4317  7.153260 14.448500  6.210050
204  2 -0.5141  6.495140 13.864300 19.463400
205  2 -0.4539 18.685300  5.478170  6.505130
206  2 -0.4645 19.468800  5.260960 20.138000
207  2 -0.4441 18.894300 13.588500  6.427190
208  2 -0.4424 18.737400 13.726200 19.439800
209  2 -0.8882 -2.129540  8.073010 12.473300
210  2 -0.8399 -2.118020  7.502400 26.395200
211  2 -0.9528 -2.649970 16.288400 12.486800
212  2 -0.8666 -2.355770 16.357300 26.086200
213  2 -0.8990  9.837170  8.120850 12.414500
214  2 -0.9478 10.118600  7.644680 25.775800
215  2 -0.9322  9.688640 16.333000 12.451800
216  2 -0.8807  9.955480 16.054500 25.787800
217  2 -0.9403 -2.559750  3.658680 12.479800
218  2 -0.8640 -1.986350  3.430030 26.183400
219  2 -0.9498 22.059700 11.982700 12.645100
220  2 -0.9366 -2.199810 12.172900 26.125500
221  2 -0.8799  9.482630  3.833570 11.916300
222  2 -0.8504 10.278200  3.660510 25.712200
223  2 -0.8724 10.133700 12.328300 12.538500
224  2 -0.8121  9.943320 11.961500 25.891700
225  2 -0.4801  1.293300  1.480180  0.677429
226  2 -0.4448  0.534748  1.387060 14.052400
227  2 -0.4535  0.507756 10.613000  1.106810
228  2 -0.3850  0.763395 10.065800 14.428700
229  2 -0.4389 12.764300 18.630600  0.490772
230  2 -0.5602 12.177900 18.830400 14.359100
231  2 -0.4674 12.635400  9.603570  0.780196
232  2 -0.3843 12.826100  9.726090 14.572200
233  2 -0.5074  6.809460 18.324600  0.610810
234  2 -0.4333  6.496890 18.190700 14.965500
235  2 -0.4841  7.296620  9.669270  0.493596
236  2 -0.4622  6.869120 10.094800 14.360400
237  2 -0.3325 19.665100  1.210770  1.128400
238  2 -0.4314 19.347500 18.718100 15.214000
239  2 -0.4651 19.071800 10.227700  0.532578
240  2 -0.3674 19.398200  9.995160 14.986900
241  2 -0.8713  3.775350  7.795770  8.275340
242  2 -0.7634  3.754330  7.494450 21.431200
243  2 -0.9014  4.239250 16.282600  8.188300
244  2 -0.8806  3.961860 16.613500 21.698300
245  2 -0.8827 15.863500  7.710960  8.580020
246  2 -0.9082 16.333300  7.393100 22.097900
247  2 -0.8653 15.838800 16.355700  8.949090
248  2 -0.9340 15.918100 16.461400 21.997300
249  2 -0.9204  3.734570  3.571750  8.148830
250  2 -0.8009  4.137380  3.980950 21.650600
251  2 -0.8078  3.687960 12.144900  8.344370
252  2 -0.8467  3.642170 11.845100 21.702900
253  2 -0.7788 15.814500  3.531600  8.645320
254  2 -0.9793 16.274700  3.677970 21.728100
255  2 -0.9225 15.946900 12.025000  8.756840
256  2 -0.9014 16.312100 11.599700 21.997200
257  2 -0.4131  6.792850  5.539800  0.429172
258  2 -0.4307  6.900680  6.103630 14.668000
259  2 -0.3332  6.785130 14.190100  0.996164
260  2 -0.4149  7.193830 13.822100 14.810500
261  2 -0.4921 19.907600  5.094340  0.958300
262  2 -0.4635 19.875500  5.892990 14.958400
263  2 -0.4562 19.432200 14.092700  0.643741
264  2 -0.4208 19.247600 14.116600 15.022700
265  2 -0.3880  1.309130  5.811510  1.272350
266  2 -0.3744  1.066590  5.844380 14.154100
267  2 -0.3906  0.311155 14.889300  1.424370
268  2 -0.4842  0.359712 14.391000 13.938100
269  2 -0.3958 12.611500  5.603480  0.591887
270  2 -0.3946 12.723600  5.767830 14.497800
271  2 -0.4680 12.926500 13.950200  0.960590
272  2 -0.3967 13.107600 14.148900 14.660400
273  2 -0.4383 -2.364060  3.336980  8.095010
274  2 -0.4188 22.261800  3.509450 21.654100
275  2 -0.4241 -2.530010 12.247800  8.126030
276  2 -0.4868 -2.289680 12.010100 22.302200
277  2 -0.4037 10.048500  3.381680  7.945860
278  2 -0.4216  9.976190  3.635800 21.611000
279  2 -0.4178 10.150900 12.503400  8.016860
280  2 -0.4093 10.315900 12.136900 21.371700
281  2 -0.4427 21.961500  7.701690  8.643280
282  2 -0.4954 -2.423300  7.980660 22.327500
283  2 -0.3880 22.258100 15.994000  8.112590
284  2 -0.4387 -2.412880 16.772100 21.965500
285  2 -0.5464  9.949030  7.927580  8.255930
286  2 -0.4616 10.535800  7.477340 20.956400
287  2 -0.3796 10.202700 16.635800  7.988710
288  2 -0.4919  9.970910 16.324800 22.086500
289  2 -0.4331  6.800140  1.128040  5.966720
290  2 -0.4041  7.258120  1.896830 19.197000
291  2 -0.4207  6.819760  9.724840  5.983790
292  2 -0.3483  6.282110  9.831040 18.328800
293  2 -0.3918 19.452700  0.969986  6.518730
294  2 -0.4236 18.963200  1.067020 19.684100
295  2 -0.4882 18.843200  9.628290  6.750160
296  2 -0.4386 19.210500  9.765820 20.041100
297  2 -0.5215  1.110180 18.172400  6.035360
298  2 -0.4326  1.025170 18.453100 20.093200
299  2 -0.4317  0.872973  9.531790  5.922530
300  2 -0.4080  0.743679  9.769480 19.461900
301  2 -0.4263 13.822500  1.002770  6.102110
302  2 -0.4528 13.442500  1.666160 20.003000
303  2 -0.4388 13.451700 10.336600  5.978310
304  2 -0.4290 13.472900  9.630220 19.976000
305  2 -0.4634  3.564580  3.947310 12.283700
306  2 -0.5345  3.851620  3.597260 25.588500
307  2 -0.4140  3.428240 12.183300 12.290700
308  2 -0.4749  4.110060 11.925500 25.960200
309  2 -0.3376 15.817800  3.740730 13.290400
310  2 -0.4669 16.203900  3.358560 25.867200
311  2 -0.4739 15.713400 11.654800 12.733600
312  2 -0.3974 16.505400 12.236000 26.261300
313  2 -0.4109  3.751680  7.733840 12.182600
314  2 -0.4941  4.075090  7.424620 26.008000
315  2 -0.4459  3.550200 16.222500 12.513700
316  2 -0.4760  3.845570 16.359700 25.678500
317  2 -0.4749 15.608700  7.956140 12.671500
318  2 -0.3838 16.120300  7.301450 26.649500
319  2 -0.3984 15.784800 16.306800 13.294200
320  2 -0.5056 16.087000 16.612600 25.802900

