Generated by pymatgen.io.lammps.data.LammpsData

360  atoms

  2  atom types

0.000000 16.929406  xlo xhi
0.000000 21.918648  ylo yhi
0.000000 29.928687  zlo zhi

Masses

1  208.9804
2   78.9600

Atoms

1    1  0.7301  2.098300 13.295100 20.885300
2    1  0.7500  4.115930 17.011300 20.748200
3    1  0.7828  1.973310  6.025950 20.778400
4    1  0.7642  4.113920  9.667760 20.885900
5    1  0.7378  6.260280 13.225200 20.885000
6    1  0.7688  8.381570 17.032300 20.901500
7    1  0.7572  2.041200 20.559500 20.752300
8    1  0.7776  4.076770  2.315230 20.852300
9    1  0.7516  6.114290  5.914990 20.867600
10   1  0.7565  8.260320  9.661960 20.931100
11   1  0.7515 10.382600 13.283500 20.808000
12   1  0.7484 12.693100 17.131300 20.692600
13   1  0.7768  6.213320 20.648900 20.876300
14   1  0.7725  8.274880  2.241320 20.897700
15   1  0.7282 10.482800  5.942870 20.929800
16   1  0.7275 12.432100  9.746380 21.067800
17   1  0.7497 14.703700 13.422600 21.000000
18   1  0.7429 17.047400 17.070300 20.738000
19   1  0.7422 10.385700 20.570100 20.737000
20   1  0.7618 12.724800  2.410240 20.681800
21   1  0.7472 14.646400  6.025290 20.807900
22   1  0.7326 16.862700  9.756400 21.092900
23   1  0.7404 14.724000 20.632500 20.751300
24   1  0.7370 -0.290439  2.334690 20.785900
25   1  0.7376  1.944750 13.342200 28.830100
26   1  0.7385  3.861600 17.096500 28.727000
27   1  0.7466  2.038300  5.961490 28.991100
28   1  0.7175  4.306670  9.669370 28.883900
29   1  0.7234  6.004500 13.378900 28.726100
30   1  0.7434  8.291530 17.086800 28.789000
31   1  0.7612  2.041670 20.806100 29.014400
32   1  0.7713  4.018550  2.302730 28.935200
33   1  0.7658  6.235060  6.045670 28.943700
34   1  0.7257  8.287650  9.495890 29.076500
35   1  0.7118 10.448800 13.179800 28.847600
36   1  0.7285 12.661200 16.936000 28.916100
37   1  0.7414  6.270780 20.714400 28.771400
38   1  0.7633  8.540430  2.452970 28.810600
39   1  0.7528 10.457400  5.953460 29.074900
40   1  0.7424 12.564100  9.737230 28.667300
41   1  0.7445 14.699300 13.326500 28.767300
42   1  0.7850 -0.254749 16.925300 28.825000
43   1  0.7510 10.389300 20.609900 28.858200
44   1  0.7602 12.602400  2.254490 29.020400
45   1  0.7550 14.777700  6.043000 28.872200
46   1  0.7319 16.794000  9.701360 28.722700
47   1  0.7531 14.510300 20.501300 28.906300
48   1  0.7970 -0.107168  2.367220 28.988200
49   1  0.8184  1.979510 15.720700  2.280780
50   1  0.7859  4.006210 19.374500  2.248510
51   1  0.8172  2.032340  8.402280  2.148870
52   1  0.7909  4.156770 12.104400  2.227140
53   1  0.8125  6.199380 15.802300  2.428370
54   1  0.8197  8.404300 19.433700  2.261090
55   1  0.8097  2.049260  1.086110  2.376290
56   1  0.8212  4.231400  4.706220  2.403620
57   1  0.8113  6.093850  8.303350  2.309330
58   1  0.8008  8.375670 12.032700  2.280350
59   1  0.8020 10.448800 15.800700  2.204590
60   1  0.8051 12.592800 19.217400  2.258780
61   1  0.8275  6.140340  1.108860  2.288370
62   1  0.8263  8.535070  4.698490  2.267210
63   1  0.8016 10.606900  8.389200  2.271880
64   1  0.8079 12.574300 12.064100  2.106930
65   1  0.8212 14.742000 15.679300  2.297600
66   1  0.8240 -0.140135 19.335100  2.251300
67   1  0.8357 10.559200  1.165570  2.170680
68   1  0.7820 12.673400  4.772970  2.204740
69   1  0.8034 14.709400  8.524170  2.262090
70   1  0.8093 16.895300 12.014300  2.170370
71   1  0.8117 14.867600  1.003880  2.125600
72   1  0.8028 16.954200  4.853720  2.251300
73   1  0.7995  2.000790 15.748700  8.204930
74   1  0.8088  4.159010 19.595300  8.290760
75   1  0.7934  1.940930  8.473830  8.265110
76   1  0.8215  4.194740 12.103500  8.233650
77   1  0.7895  6.397180 15.801100  8.247780
78   1  0.7883  8.396130 19.435200  8.240980
79   1  0.7973  2.073300  1.154520  8.299040
80   1  0.7760  4.154490  4.784700  8.347250
81   1  0.8027  6.326690  8.441390  8.228370
82   1  0.8105  8.420360 12.172700  8.322450
83   1  0.8005 10.530400 15.679600  8.273240
84   1  0.7805 12.563700 19.398000  8.225120
85   1  0.7842  6.187140  1.182300  8.236460
86   1  0.7897  8.375260  4.823720  8.211980
87   1  0.7864 10.466600  8.447060  8.237400
88   1  0.7678 12.561200 11.975500  8.279010
89   1  0.8038 14.715000 15.572200  8.259530
90   1  0.7749 -0.050910 19.500800  8.294470
91   1  0.7868 10.427900  0.987453  8.230340
92   1  0.7932 12.595400  4.664240  8.191090
93   1  0.7988 14.778900  8.459790  8.272000
94   1  0.8085 -0.032222 12.000300  8.260510
95   1  0.7995 14.768500  1.242740  8.303910
96   1  0.7826 -0.077368  4.773070  8.296270
97   1  0.7961 16.930800 14.464100 11.472400
98   1  0.7844  1.897230 18.191800 11.622200
99   1  0.7857 16.866500  7.233650 11.590500
100  1  0.7793  2.090660 10.913900 11.533400
101  1  0.8058  4.150910 14.570500 11.531800
102  1  0.7916  6.155470 18.212200 11.428100
103  1  0.8101 16.908900 21.843200 11.530900
104  1  0.8088  1.962200  3.678270 11.595600
105  1  0.8006  4.192400  7.193730 11.580700
106  1  0.7733  6.245750 11.019700 11.620800
107  1  0.7752  8.326680 14.604100 11.568900
108  1  0.7901 10.448800 18.070900 11.468800
109  1  0.7961  4.176400  0.072403 11.647300
110  1  0.8046  6.253390  3.547140 11.596000
111  1  0.7949  8.390930  7.243590 11.538900
112  1  0.7901 10.454100 10.709800 11.550000
113  1  0.7725 12.569300 14.468000 11.496900
114  1  0.7795 14.741000 18.223300 11.424000
115  1  0.8114  8.364070 -0.091981 11.407200
116  1  0.7955 10.379000  3.621030 11.542000
117  1  0.8062 12.602100  7.263420 11.603500
118  1  0.8034 14.696500 10.868400 11.657200
119  1  0.8234 12.610800 21.782000 11.507500
120  1  0.7834 14.821300  3.756490 11.566500
121  1  0.8103  0.020243 14.648800 17.524700
122  1  0.7816  2.085390 18.065800 17.550200
123  1  0.8009 -0.108188  7.293300 17.584900
124  1  0.8253  2.065320 10.820900 17.573300
125  1  0.8017  4.218800 14.571400 17.611900
126  1  0.8252  6.197930 18.098800 17.446400
127  1  0.8243 16.887500 -0.040435 17.364000
128  1  0.8277  2.133910  3.526580 17.607900
129  1  0.8027  4.179930  7.098730 17.633100
130  1  0.8178  6.328990 10.768400 17.509700
131  1  0.8020  8.386550 14.416800 17.530600
132  1  0.8032 10.433500 18.225900 17.554200
133  1  0.8191  4.133730 21.691800 17.585000
134  1  0.8063  6.188000  3.511240 17.580800
135  1  0.8025  8.292450  7.061650 17.589300
136  1  0.7747 10.490300 10.759600 17.640100
137  1  0.7969 12.598300 14.461300 17.564400
138  1  0.8053 14.844900 18.122100 17.447500
139  1  0.7964  8.414020 -0.213487 17.555500
140  1  0.8095 10.510600  3.585600 17.603800
141  1  0.7842 12.515800  7.122350 17.689600
142  1  0.7948 14.651200 10.854900 17.652700
143  1  0.8206 12.504100 21.912200 17.425600
144  1  0.7946 14.758400  3.620940 17.408100
145  2 -0.8883 -0.131007 14.515900  0.651280
146  2 -0.8942  1.756910 18.183300  0.520748
147  2 -0.9071 16.871900  7.207120  0.607561
148  2 -0.8973  2.012390 10.845300  0.459390
149  2 -0.8773  4.046100 14.642700  0.597995
150  2 -0.8564  6.113600 18.272400  0.558241
151  2 -0.9052 -0.070743 21.849600  0.562962
152  2 -0.8957  2.058810  3.508410  0.756482
153  2 -0.9190  4.120100  7.074670  0.703746
154  2 -0.9066  6.274310 10.832300  0.665143
155  2 -0.8430  8.170880 14.618300  0.574564
156  2 -0.9099 10.301300 18.253400  0.602191
157  2 -0.9275  4.181710 -0.042018  0.570940
158  2 -0.8505  6.319600  3.569370  0.609528
159  2 -0.9039  8.356600  7.064170  0.743306
160  2 -0.9041 10.489900 10.786100  0.638568
161  2 -0.9040 12.548300 14.553900  0.588488
162  2 -0.9257 14.702400 18.182700  0.591803
163  2 -0.8687  8.370150 21.898500  0.613483
164  2 -0.9468 10.590000  3.532170  0.628282
165  2 -0.9030 12.623900  7.314780  0.540328
166  2 -0.9054 14.664800 10.922900  0.416333
167  2 -0.9004 12.532500 -0.178483  0.725284
168  2 -0.8974 14.764400  3.500970  0.513453
169  2 -0.3513  1.739890 15.827000 27.119900
170  2 -0.2995  3.764330 19.516000 26.935600
171  2 -0.2721  2.149770  8.357170 26.865100
172  2 -0.3488  4.094330 12.209400 26.996600
173  2 -0.2738  6.147930 15.968500 26.735400
174  2 -0.3577  8.434920 19.525500 27.039500
175  2 -0.3587  1.926110  1.232380 27.298100
176  2 -0.3326  4.109770  4.759470 27.221900
177  2 -0.3224  6.262820  8.387230 27.069500
178  2 -0.2877  8.382550 11.880400 26.945600
179  2 -0.2839 10.291900 15.724100 26.936100
180  2 -0.3251 12.796000 19.207100 27.059100
181  2 -0.3169  6.228480  1.267800 27.066000
182  2 -0.3478  8.434260  4.963930 27.236700
183  2 -0.2992 10.295200  8.359920 27.040400
184  2 -0.3359 12.669700 12.162700 26.922000
185  2 -0.3585 14.728400 15.904400 27.128700
186  2 -0.2421 16.826900 19.543500 26.985500
187  2 -0.3628 10.583900  1.020430 27.192500
188  2 -0.2906 12.538900  4.841300 27.130700
189  2 -0.2794 14.827600  8.114360 26.739100
190  2 -0.3199 -0.263895 11.956600 26.870000
191  2 -0.3388 14.718000  1.137360 27.328500
192  2 -0.3356 -0.077541  4.722370 27.264500
193  2 -0.2627 16.878700 14.621700 22.843100
194  2 -0.3754  2.049500 18.182500 22.421800
195  2 -0.2998 16.807200  6.866210 22.719100
196  2 -0.3237  1.833820 11.060000 22.881600
197  2 -0.2966  3.988190 14.886700 22.786800
198  2 -0.2342  6.311450 18.023700 23.041700
199  2 -0.2834 -0.134258 21.793400 22.699600
200  2 -0.2835  1.691760  3.396730 22.636400
201  2 -0.3805  3.951980  7.213920 22.441500
202  2 -0.3784  6.325310 10.903400 22.554400
203  2 -0.2924  8.281240 14.582400 22.778700
204  2 -0.3629 10.628200 18.214700 22.429100
205  2 -0.3722  4.062610 21.729700 22.423100
206  2 -0.3172  6.103150  3.288960 22.725600
207  2 -0.2936  8.100640  7.073940 22.772700
208  2 -0.3306 10.635800 10.944700 22.806800
209  2 -0.2923 12.429300 14.606200 22.641400
210  2 -0.3426 14.761700 18.162000 22.439700
211  2 -0.3797  8.254330 21.732700 22.470700
212  2 -0.2833 10.623000  3.426890 22.716000
213  2 -0.2737 12.502800  7.100420 22.984800
214  2 -0.3031 14.679400 11.081600 22.956600
215  2 -0.2925 12.619600  0.066679 22.596600
216  2 -0.3621 14.638700  3.650150 22.441900
217  2 -0.8848  2.159160 13.265500  9.830970
218  2 -0.8533  4.090510 17.026600  9.809260
219  2 -0.8926  2.023970  6.013750  9.956590
220  2 -0.8564  4.124930  9.703270  9.784210
221  2 -0.8882  6.217110 13.349500  9.917600
222  2 -0.9033  8.411210 17.028200  9.877610
223  2 -0.8933  2.062690 20.754400  9.920420
224  2 -0.8967  4.180450  2.408210 10.017800
225  2 -0.8818  6.273170  6.085480  9.992340
226  2 -0.8896  8.383810  9.728330  9.840910
227  2 -0.9012 10.386900 13.320600  9.839260
228  2 -0.8882 12.645200 16.866800  9.805130
229  2 -0.8963  6.314910 20.676700  9.862520
230  2 -0.8809  8.359800  2.385870  9.917710
231  2 -0.8758 10.498800  5.978250  9.831810
232  2 -0.8929 12.567000  9.616300 10.060000
233  2 -0.8796 14.803000 13.184400  9.895280
234  2 -0.8823 16.782600 16.861600  9.902290
235  2 -0.9025 10.560600 20.634500  9.935290
236  2 -0.8516 12.657200  2.303560  9.913800
237  2 -0.8853 14.812200  6.041150  9.803080
238  2 -0.8936 -0.119075  9.715220  9.928820
239  2 -0.8763 14.753200 20.730700  9.904620
240  2 -0.8900 16.878300  2.381880  9.988720
241  2 -0.3473 16.779200 14.497500  6.549180
242  2 -0.3416  2.066900 18.224800  6.588580
243  2 -0.3392 16.812000  7.280940  6.548770
244  2 -0.3516  2.008710 10.935800  6.577920
245  2 -0.3424  4.184660 14.531900  6.514300
246  2 -0.3509  6.308330 18.306400  6.610060
247  2 -0.3591 -0.122318 -0.034052  6.644310
248  2 -0.3622  2.209040  3.480490  6.585340
249  2 -0.3338  4.166020  7.254220  6.558710
250  2 -0.3425  6.396440 10.875900  6.583830
251  2 -0.3518  8.418680 14.465800  6.533910
252  2 -0.3520 10.418400 17.956100  6.548380
253  2 -0.3738  4.124970 -0.093149  6.603670
254  2 -0.3528  6.238620  3.566120  6.527870
255  2 -0.3605  8.473420  7.209710  6.547250
256  2 -0.3370 10.380100 10.885900  6.485540
257  2 -0.3379 12.687200 14.381300  6.553830
258  2 -0.3235 14.654800 18.196400  6.527770
259  2 -0.3554  8.446570 21.816900  6.506920
260  2 -0.3504 10.414600  3.388720  6.570860
261  2 -0.3476 12.637900  7.143270  6.595710
262  2 -0.3524 14.854300 10.785100  6.568750
263  2 -0.3337 12.611600 21.745000  6.535130
264  2 -0.3464 14.717300  3.606850  6.494400
265  2 -0.3733  2.005480 13.293200  3.825290
266  2 -0.3542  4.117100 17.109200  4.005170
267  2 -0.3275  2.074730  6.100530  4.035290
268  2 -0.3581  4.079410  9.536640  3.886140
269  2 -0.3427  6.296250 13.250100  3.997880
270  2 -0.3479  8.385610 16.973000  3.957470
271  2 -0.3580  1.949530 20.500000  3.991410
272  2 -0.3867  4.174180  2.152310  3.938340
273  2 -0.3530  6.371590  5.927550  3.960520
274  2 -0.2999  8.325120  9.549180  4.064010
275  2 -0.3288 10.565600 13.318500  3.912280
276  2 -0.3572 12.498000 16.809800  3.935250
277  2 -0.3149  6.272410 20.488500  4.030710
278  2 -0.3498  8.389120  2.285250  3.852750
279  2 -0.3360 10.584500  5.901730  4.055820
280  2 -0.3619 12.644200  9.755730  3.918440
281  2 -0.3229 14.787400 13.251400  3.921580
282  2 -0.3671 -0.204437 16.872700  3.902010
283  2 -0.3235 10.556500 20.537700  3.967180
284  2 -0.3300 12.573600  2.198950  3.903230
285  2 -0.3365 14.727300  6.118000  3.963590
286  2 -0.3523  0.042409  9.538710  3.841750
287  2 -0.3443 14.816600 20.588500  3.905670
288  2 -0.3593 16.875200  2.365430  3.893050
289  2 -0.9472  2.099930 15.668700 19.177800
290  2 -0.9249  4.192490 19.357400 19.157500
291  2 -0.8889  2.002370  8.429790 19.247300
292  2 -0.8896  4.127070 11.963900 19.158600
293  2 -0.8946  6.317480 15.789800 19.273600
294  2 -0.9152  8.261520 19.295200 19.153800
295  2 -0.8819  2.036900  1.135900 19.147200
296  2 -0.9306  4.062490  4.700640 19.223700
297  2 -0.8878  6.196900  8.451180 19.280300
298  2 -0.9180  8.310240 12.091300 19.221800
299  2 -0.8724 10.399500 15.702400 19.180000
300  2 -0.8919 12.602900 19.426300 19.059500
301  2 -0.8885  6.164930  1.065900 19.278700
302  2 -0.8993  8.250480  4.717130 19.267500
303  2 -0.9088 10.399300  8.326470 19.363500
304  2 -0.9000 12.570100 12.123200 19.291700
305  2 -0.8906 14.827700 15.731300 19.166900
306  2 -0.9040 -0.101590 19.456900 19.077100
307  2 -0.8926 10.403500  1.187360 19.257600
308  2 -0.9332 12.621400  4.713320 19.179500
309  2 -0.8883 14.651400  8.444990 19.373600
310  2 -0.8589 -0.094254 12.090700 19.274400
311  2 -0.8971 14.642600  1.089140 19.005500
312  2 -0.8859 16.963200  4.823050 19.206300
313  2 -0.3336  2.187750 13.377200 15.933700
314  2 -0.3571  4.191510 16.886400 15.806700
315  2 -0.3179  1.996660  6.117360 15.812200
316  2 -0.3416  4.160220  9.642700 15.895000
317  2 -0.3295  6.224440 13.296600 15.738600
318  2 -0.3296  8.439970 16.868100 15.824400
319  2 -0.3631  2.088400 20.500400 15.855700
320  2 -0.3748  4.051560  2.356320 15.971600
321  2 -0.3649  6.170290  5.933820 15.914700
322  2 -0.3690  8.385800  9.527760 15.937000
323  2 -0.3334 10.743900 13.232000 15.807300
324  2 -0.3149 12.582000 16.975800 15.768000
325  2 -0.3415  6.322750 20.521900 15.840500
326  2 -0.3403  8.469850  2.257400 15.910100
327  2 -0.3455 10.467500  5.955580 15.891800
328  2 -0.2993 12.563400  9.629470 15.747800
329  2 -0.3223 14.761400 13.287700 15.846100
330  2 -0.3483 -0.071999 16.961200 15.706800
331  2 -0.3548 10.413600 20.529900 15.805300
332  2 -0.3780 12.573600  2.312770 15.871000
333  2 -0.3539 14.710100  6.098970 15.862000
334  2 -0.3438 -0.206536  9.696510 15.886500
335  2 -0.3224 14.681300 20.591800 15.772700
336  2 -0.3427 16.977600  2.289900 15.746900
337  2 -0.3580  2.088300 15.746300 13.170200
338  2 -0.3503  4.047420 19.348100 13.203900
339  2 -0.3411  1.969440  8.436300 13.313100
340  2 -0.3657  4.109730 12.135200 13.233600
341  2 -0.3720  6.220570 15.803400 13.147400
342  2 -0.3256  8.365850 19.214300 13.165500
343  2 -0.3495  2.088800  1.287700 13.276100
344  2 -0.3531  4.117930  4.878990 13.234400
345  2 -0.3540  6.241000  8.395060 13.230900
346  2 -0.3382  8.531380 12.147800 13.402700
347  2 -0.3274 10.515500 15.751800 13.335800
348  2 -0.3339 12.617700 19.383700 13.197300
349  2 -0.3596  6.391090  1.013060 13.230200
350  2 -0.3589  8.290720  4.880320 13.214800
351  2 -0.3679 10.518900  8.343470 13.215600
352  2 -0.3418 12.632700 12.004200 13.268500
353  2 -0.3294 14.767700 15.670400 13.188900
354  2 -0.3715 -0.175746 19.454800 13.194900
355  2 -0.3511 10.259500  1.074920 13.096600
356  2 -0.3456 12.577300  4.972990 13.281000
357  2 -0.3493 14.709400  8.392470 13.295400
358  2 -0.3323  0.047859 12.333600 13.324800
359  2 -0.3492 14.762500  1.147990 13.136400
360  2 -0.3661 -0.077677  4.867990 13.322000

