Generated by pymatgen.io.lammps.data.LammpsData

216  atoms

  2  atom types

0.000000 18.096178  xlo xhi
0.000000 18.140645  ylo yhi
0.000000 18.233787  zlo zhi

Masses

1  208.9804
2   78.9600

Atoms

1    1  0.8550 -0.011652 17.592400  0.859588
2    1  0.7752  0.731723 17.768200  6.657280
3    1  0.7516  0.331041 17.954900 13.459000
4    1  0.7617  0.647054  5.412140  0.581724
5    1  0.7299  0.163913  5.196060  6.002210
6    1  0.7204  0.074625  5.954090 13.003100
7    1  0.6989  0.394589 12.344600 18.164300
8    1  0.6553  0.218696 11.546000  6.798030
9    1  0.7847 18.015800 12.509600 12.887500
10   1  0.8014  6.366300 18.045800  0.584016
11   1  0.8746  6.479690 17.997000  6.811970
12   1  0.6489  6.657980 17.449200 13.145300
13   1  0.7830  6.367370  5.605110  0.947948
14   1  0.8515  6.073680  5.300250  6.656240
15   1  0.7795  6.520850  6.471700 12.292300
16   1  0.7360  6.301680 11.669400  0.591085
17   1  0.7486  6.303370 12.231800  6.573810
18   1  0.8949  6.223050 11.663800 12.761900
19   1  0.8010 12.187600  0.303100  1.538010
20   1  0.7075 12.176100 18.072900  7.059690
21   1  0.7892 12.500900 18.247200 12.726700
22   1  0.7779 12.134100  5.546820  0.683560
23   1  0.7382 12.103400  5.457150  6.881400
24   1  0.8369 12.456500  5.610870 12.561000
25   1  0.6295 12.292000 11.980000 -0.051244
26   1  0.7514 12.666800 11.112700  6.745700
27   1  0.8160 12.951800 10.849600 12.233700
28   1  0.6707 18.044500  3.434080  3.040460
29   1  0.6797  0.582451  2.354380 10.202400
30   1  0.7906 17.694000  2.437550 15.859500
31   1  0.8657 18.387300  8.998410  2.986180
32   1  0.7127  0.254971  8.743010  9.772630
33   1  0.7723 17.863300  8.171460 15.724700
34   1  0.7161  0.284163 14.400800  4.086010
35   1  0.7643  0.218575 14.801100 10.281800
36   1  0.7622 17.833700 14.888600 15.912900
37   1  0.9162  6.183460  2.479790  3.784540
38   1  0.7704  6.561510  2.716830  9.558340
39   1  0.7834  6.375310  2.314420 16.092500
40   1  0.8279  5.669710  8.352490  3.481510
41   1  0.7112  6.701000  8.603670  9.260240
42   1  0.7106  6.656310  9.036440 15.546600
43   1  0.8105  6.438200 14.772700  3.996630
44   1  0.8694  6.640490 14.983500  9.551700
45   1  0.7496  6.732370 15.165100 16.229100
46   1  0.5932 12.208300  3.018600  4.506290
47   1  0.8560 12.817100  2.538060 10.203000
48   1  0.8450 12.118100  2.985160 15.784800
49   1  0.8454 11.926200  8.646070  3.785420
50   1  0.7096 12.032300  8.213000  9.391780
51   1  0.7914 12.192000  8.768740 16.001600
52   1  0.8773 12.047400 14.196100  3.552180
53   1  0.8100 12.594700 14.823800  9.847720
54   1  0.6930 12.430100 15.113400 15.843000
55   1  0.7373  2.725520 17.535400  4.012980
56   1  0.7691  3.659500 17.809800  9.984830
57   1  0.7436  2.853780 17.693000 16.234600
58   1  0.6361  3.072010  5.500840  3.523550
59   1  0.7704  2.649760  5.779380  9.810670
60   1  0.8062  2.966420  5.784980 15.683300
61   1  0.8219  3.294200 11.996900  3.131400
62   1  0.7619  3.530730 11.559000  9.414740
63   1  0.7516  3.518490 11.983500 16.002800
64   1  0.8059  9.725510 17.801600  3.818490
65   1  0.8058 10.131800 17.975300  9.730680
66   1  0.7466  9.401660 -0.321243 16.000100
67   1  0.7417  9.496810  5.614520  4.083620
68   1  0.6925  9.162760  5.377480 10.167100
69   1  0.8026  8.563990  5.617940 15.901300
70   1  0.7230  9.254480 10.878100  2.930060
71   1  0.7034  9.230320 12.025400  8.965570
72   1  0.8333  9.507530 11.794200 15.455400
73   1  0.8018 15.114500 17.663700  4.036000
74   1  0.7737 15.771800 17.436100  9.753730
75   1  0.7135 15.067900 17.859100 15.727200
76   1  0.9538 15.273300  6.154160  3.826390
77   1  0.8735 14.950900  5.699520  9.542390
78   1  0.5982 14.766600  6.033410 15.647900
79   1  0.7979 15.141000 12.050900  3.778720
80   1  0.8054 15.609000 11.779300  9.754640
81   1  0.8711 15.079600 11.756500 15.643800
82   1  0.7487  4.327750  3.451970  0.293433
83   1  0.6609  2.989280  2.335460  7.531250
84   1  0.9083  3.918220  3.043460 12.736700
85   1  0.7225  3.269710  8.799880  0.849705
86   1  0.7778  3.478530  9.179550  6.828830
87   1  0.7698  3.739250  8.747110 12.627500
88   1  0.6699  3.605530 14.937300  0.587066
89   1  0.8066  3.411710 15.075000  7.119710
90   1  0.8177  4.139780 15.068000 12.497500
91   1  0.7721  9.516400  2.777830  1.244360
92   1  0.7928  9.147900  2.103190  6.824640
93   1  0.8215  9.041430  2.508560 12.623900
94   1  0.7494  9.677200  8.135280  0.379948
95   1  0.7893  9.129460  9.203440  6.497710
96   1  0.8288  9.683920  8.732350 12.176500
97   1  0.7773  9.341270 14.300500  0.901662
98   1  0.7817  9.644100 14.539900  6.732120
99   1  0.7664  9.040370 15.393300 13.184900
100  1  0.7800 14.966800  2.971630  0.720566
101  1  0.7462 15.135000  2.635340  6.552260
102  1  0.6579 15.807900  2.448710 12.439200
103  1  0.7693 15.305800  8.923570  0.325687
104  1  0.7237 14.860800  8.630010  6.690940
105  1  0.7890 15.199300  8.196730 12.597900
106  1  0.8584 14.946100 15.365300  1.282770
107  1  0.8706 15.411100 14.711300  6.603710
108  1  0.7721 14.973800 14.506000 12.673300
109  2 -0.6596  3.550620 18.438300  1.020210
110  2 -0.8588  3.733880 17.741400  7.049240
111  2 -0.6615  3.334550 -0.029096 13.631400
112  2 -0.8443  3.691630  5.972810  0.234813
113  2 -0.7572  3.054890  5.430400  6.608800
114  2 -0.7812  3.189120  5.919260 12.242100
115  2 -0.9064  3.618210 12.179800  0.507506
116  2 -0.7591  3.449430 11.900700  6.341250
117  2 -0.7180  3.831670 11.311000 12.094900
118  2 -0.6987  9.400910 17.768900  0.740895
119  2 -0.8177  9.115250 17.474700  7.022760
120  2 -0.8335  9.927750 18.103900 12.281700
121  2 -0.8517  9.263350  5.449270  0.850826
122  2 -0.7199  8.955680  5.426300  6.716760
123  2 -0.7338  8.924700  6.255780 13.015400
124  2 -0.8520  9.146060 11.778800 -0.002871
125  2 -0.8193  9.555710 11.633400  6.101310
126  2 -0.5483  9.261660 12.089900 12.430900
127  2 -0.7360 15.514500 17.874200  0.957146
128  2 -0.7246 15.925100 17.148100  6.759450
129  2 -0.8401 15.705700 16.944100 12.947500
130  2 -0.6957 15.128600  5.778050  0.790925
131  2 -0.7436 15.043200  5.873980  6.515160
132  2 -0.8225 15.495000  5.287160 12.178800
133  2 -0.6826 15.411200 12.043400  0.436257
134  2 -0.8474 15.228200 11.847500  6.652420
135  2 -0.8305 15.355400 11.942500 13.020100
136  2 -0.7200  3.517740  2.735390  3.256550
137  2 -0.8524  3.492300  2.346800 10.428400
138  2 -0.5894  3.055080  3.007320 16.045300
139  2 -0.7621  2.976020  9.273560  3.984060
140  2 -0.7944  3.520950  8.641320  9.764000
141  2 -0.7213  3.552610  9.115370 16.109200
142  2 -0.7946  2.980420 14.824700  3.421350
143  2 -0.7673  3.995830 14.816100  9.880540
144  2 -0.7538  3.620530 14.688800 15.301800
145  2 -0.8116  8.772480  2.309450  4.185400
146  2 -0.7959  9.736690  2.639980  9.662240
147  2 -0.7121  9.176750  2.692380 15.697000
148  2 -0.7934  9.040080  8.501510  3.263470
149  2 -0.8873  9.364790  8.957500  9.509690
150  2 -0.7553  9.620560  8.352430 15.900000
151  2 -0.7684  9.615540 14.946700  3.867270
152  2 -0.7005  9.910780 15.090800  9.669880
153  2 -0.8175  9.289830 14.553000 15.958200
154  2 -0.7680 15.423800  3.378420  3.614610
155  2 -0.7062 15.421300  2.784950  9.448640
156  2 -0.8334 15.102100  2.687510 14.970300
157  2 -0.6465 15.054600  8.896780  3.482700
158  2 -0.8105 15.412100  8.796480  9.990920
159  2 -0.7993 15.117300  9.036210 15.236700
160  2 -0.8321 14.518500 14.680500  3.770840
161  2 -0.8219 15.503300 14.398800  9.388330
162  2 -0.7823 15.327200 14.718800 15.927100
163  2 -0.7359 17.870900 17.504600  3.747540
164  2 -0.7903  0.550841 17.450900 10.147900
165  2 -0.8416 18.258900 17.514300 16.099000
166  2 -0.8173 -0.113375  6.263330  3.446230
167  2 -0.6637 17.922100  5.490910  9.480570
168  2 -0.7959  0.272016  5.323730 16.263300
169  2 -0.7578  0.165530 11.693200  3.012020
170  2 -0.7953 18.386400 11.791900 10.119400
171  2 -0.6759 17.731200 11.163800 15.696600
172  2 -0.6251  6.105280 17.624900  3.807160
173  2 -0.7659  6.522170 18.042500 10.047400
174  2 -0.9542  6.613560 17.904800 15.902200
175  2 -0.7492  6.209980  5.815440  4.071650
176  2 -0.8061  6.176970  5.366480  9.648370
177  2 -0.6526  5.812130  4.930120 15.573300
178  2 -0.7479  6.280020 12.058900  3.751340
179  2 -0.7193  6.504760 12.011400  9.760570
180  2 -0.7529  6.381050 12.030600 15.585100
181  2 -0.8843 12.333700 18.115500  4.008130
182  2 -0.8573 13.192800 18.079700 10.185700
183  2 -0.7544 12.098500 18.257000 15.996200
184  2 -0.7831 12.727800  5.985830  3.956580
185  2 -0.8917 12.521900  5.543490  9.971420
186  2 -0.7152 11.849400  5.807580 15.582100
187  2 -0.7885 12.255500 11.451200  3.800180
188  2 -0.7798 12.823800 11.599500  9.729920
189  2 -0.8234 12.203100 11.536200 15.578400
190  2 -0.7178 17.795500  2.281390  0.314620
191  2 -0.7653  0.136444  2.254090  6.697570
192  2 -0.6731  1.191410  3.046710 13.222900
193  2 -0.7587  0.087047  8.074460  0.554165
194  2 -0.6467 18.366800  8.696150  6.376340
195  2 -0.7228 17.996100  8.629150 13.158900
196  2 -0.7685 17.446800 14.956200  0.657593
197  2 -0.7759  0.651258 15.024500  6.944690
198  2 -0.7233  0.979298 14.981000 13.113700
199  2 -0.8611  6.690870  2.705260  1.278250
200  2 -0.8205  6.605420  2.618500  6.709500
201  2 -0.6977  6.613690  3.244320 13.143300
202  2 -0.8000  6.000010  8.110000  1.012610
203  2 -0.7619  6.299190  9.290550  6.514230
204  2 -0.8586  6.737370  8.934970 12.810000
205  2 -0.7627  6.487140 15.076200  0.749578
206  2 -0.8357  6.233000 15.207600  6.910280
207  2 -0.7981  6.765790 14.738600 12.168100
208  2 -0.9077 12.282200  2.973260  0.998878
209  2 -0.8516 12.416900  2.582910  7.526340
210  2 -0.7440 11.981500  2.936890 13.207800
211  2 -0.8086 12.402900  8.605360  0.767219
212  2 -0.8789 11.955300  8.378190  6.555950
213  2 -0.8553 12.215300  8.421040 12.710700
214  2 -0.7370 12.069900 15.530700  1.290790
215  2 -0.6835 12.400600 15.042900  6.786860
216  2 -0.6929 12.216500 15.038700 12.785900

