Generated by pymatgen.io.lammps.data.LammpsData

360  atoms

  2  atom types

0.000000 16.871067  xlo xhi
0.000000 22.058404  ylo yhi
0.000000 29.928687  zlo zhi

Masses

1  208.9804
2   78.9600

Atoms

1    1  0.7470  1.996720 13.242600 21.027000
2    1  0.7547  3.949020 17.089700 21.365400
3    1  0.7634  2.117370  5.964090 21.066900
4    1  0.7506  4.142290  9.565040 21.285100
5    1  0.7634  6.090230 13.368000 21.105300
6    1  0.7729  8.388310 17.101400 21.268600
7    1  0.7418  2.051070 20.832700 20.911300
8    1  0.7113  4.145370  2.342780 21.046000
9    1  0.7207  6.028140  6.017280 21.014500
10   1  0.7540  8.149590  9.819660 21.065000
11   1  0.7643 10.324800 13.525600 21.170800
12   1  0.7908 12.586100 16.985400 21.237900
13   1  0.7968  6.144290 20.824100 21.271000
14   1  0.7367  8.391100  2.210310 20.984500
15   1  0.7694 10.425900  5.997690 21.216200
16   1  0.7558 12.370600  9.545000 21.043100
17   1  0.7520 14.719400 13.079000 20.956500
18   1  0.7464 16.808500 16.881600 21.143000
19   1  0.7855 10.518600 20.675700 20.900400
20   1  0.7697 12.552200  2.349760 20.859800
21   1  0.7541 14.593100  6.028150 20.975000
22   1  0.7514 16.852000  9.550180 21.142700
23   1  0.7896 14.572600 20.673700 20.859200
24   1  0.7396 -0.069575  2.209720 21.055400
25   1  0.7572  1.942950 13.284100 28.723100
26   1  0.7651  4.170370 16.857000 28.658300
27   1  0.7252  1.642260  5.807920 28.704900
28   1  0.7567  4.261000  9.434210 29.047100
29   1  0.7763  6.247670 13.235200 28.551900
30   1  0.7737  8.391400 17.012700 28.714700
31   1  0.7272  1.965020 20.449700 28.706300
32   1  0.7413  4.258220  2.041840 28.328100
33   1  0.7629  6.170930  5.775890 28.878700
34   1  0.7545  8.267760  9.696130 28.806300
35   1  0.7288 10.441800 13.160100 28.878200
36   1  0.7418 12.434200 17.128000 28.670200
37   1  0.7538  6.381400 20.755200 28.527600
38   1  0.7811  8.225740  2.377480 28.965900
39   1  0.7629 10.271100  5.948400 28.900700
40   1  0.7505 12.250400  9.586510 28.814900
41   1  0.7436 14.374200 13.122700 28.769500
42   1  0.7393 -0.067680 16.909400 28.778100
43   1  0.7593 10.383400 20.775700 28.729200
44   1  0.7207 12.376800  2.405760 28.603900
45   1  0.7392 14.484900  5.907930 28.694700
46   1  0.7182 16.702700  9.693090 28.782800
47   1  0.7603 14.656200 20.479900 28.511800
48   1  0.7172 16.678600  2.035240 28.600200
49   1  0.7950  1.903800 15.478900  2.156720
50   1  0.8092  4.096860 19.225700  2.050080
51   1  0.8000  1.959530  8.336790  2.381710
52   1  0.8286  4.055630 12.098300  2.194260
53   1  0.7877  6.032930 15.733700  2.195840
54   1  0.8405  8.284030 19.394600  2.182330
55   1  0.8027  2.072160  0.940638  2.205050
56   1  0.7944  4.063290  4.606480  2.200080
57   1  0.8130  6.140590  8.352370  2.297350
58   1  0.7908  8.339280 12.367900  2.120000
59   1  0.7850 10.437600 15.693800  2.177310
60   1  0.8126 12.506400 19.223800  2.302210
61   1  0.8292  6.277570  0.938200  2.249540
62   1  0.8058  8.199440  4.745970  2.194900
63   1  0.8111 10.305500  8.401100  2.234870
64   1  0.7988 12.504500 11.872200  2.184490
65   1  0.8074 14.649200 15.651500  2.079110
66   1  0.8231 16.789700 19.369100  2.024780
67   1  0.7789 10.426900  0.804457  2.151280
68   1  0.8070 12.402800  4.612420  2.173370
69   1  0.8096 14.556200  8.431110  2.208580
70   1  0.7892 -0.176380 11.927000  2.356390
71   1  0.7863 14.777600  0.799128  2.022810
72   1  0.7812 -0.045789  4.687450  2.208580
73   1  0.7711  1.986530 15.751200  8.146560
74   1  0.7588  4.158310 19.521400  8.371110
75   1  0.7863  1.999440  8.418970  8.167350
76   1  0.7981  4.216530 11.900400  8.294310
77   1  0.8022  6.122320 15.677700  8.442820
78   1  0.7700  8.333010 19.307000  8.002820
79   1  0.8138  2.036140  0.988479  8.157630
80   1  0.7930  4.108300  4.822250  8.099300
81   1  0.8244  6.225570  8.360560  8.385660
82   1  0.7917  8.332310 12.060900  8.207370
83   1  0.8348 10.483000 15.527200  8.053450
84   1  0.7725 12.502400 19.134800  8.380000
85   1  0.7683  6.117960  1.089130  8.171450
86   1  0.7848  8.274400  4.409540  8.329540
87   1  0.7776 10.414000  8.155410  8.250090
88   1  0.7947 12.592600 11.834300  8.169920
89   1  0.7818 14.688100 15.728300  8.112100
90   1  0.7747 -0.098011 19.277600  8.274380
91   1  0.7675 10.369700  1.020690  8.299890
92   1  0.7551 12.435400  4.685390  8.350360
93   1  0.7905 14.748400  8.296410  8.130170
94   1  0.8203 16.914700 12.189700  8.379500
95   1  0.7779 14.820900  0.849275  8.143120
96   1  0.8070  0.001727  4.730420  8.142230
97   1  0.7693 16.828100 14.575500 11.725900
98   1  0.7955  1.919400 18.094900 11.592700
99   1  0.7665 16.894800  7.161770 11.806000
100  1  0.7843  1.966180 10.801600 11.643200
101  1  0.7951  4.125950 14.559700 11.602500
102  1  0.7586  6.373100 18.275800 11.539200
103  1  0.7909 -0.108300 21.878900 11.521800
104  1  0.8011  1.964880  3.470760 11.605400
105  1  0.7813  4.073480  6.976900 11.499700
106  1  0.7827  6.329850 10.652500 11.666200
107  1  0.7811  8.391510 14.271700 11.549100
108  1  0.7724 10.371300 18.055700 11.521300
109  1  0.7837  4.079110 -0.156958 11.622300
110  1  0.7660  6.265620  3.319360 11.655900
111  1  0.8026  8.175040  6.936410 11.759400
112  1  0.7254 10.495300 10.818600 11.555400
113  1  0.7637 12.677100 14.401900 11.650300
114  1  0.7800 14.587800 18.050600 11.547000
115  1  0.7932  8.458380 21.942700 11.481900
116  1  0.7941 10.421100  3.387170 11.642100
117  1  0.7683 12.638600  7.147700 11.620600
118  1  0.7850 14.745000 10.951700 11.869200
119  1  0.7856 12.533100 21.703200 11.601800
120  1  0.8083 14.628700  3.587040 11.604600
121  1  0.7853 16.965300 14.440600 17.808700
122  1  0.7469  1.908930 18.205500 17.937700
123  1  0.8083 16.875300  7.150230 17.576400
124  1  0.8070  2.014150 10.816400 17.732900
125  1  0.7945  4.212300 14.533200 17.889100
126  1  0.8143  6.233360 18.351400 17.848300
127  1  0.8002 -0.002286 21.872200 17.631900
128  1  0.8107  2.022270  3.705050 17.601000
129  1  0.8165  3.935570  7.274670 17.658100
130  1  0.8051  6.208810 10.993200 17.827900
131  1  0.7937  8.081680 14.689400 17.860600
132  1  0.7990 10.585400 18.228100 17.712100
133  1  0.7843  4.086920 -0.194465 17.616400
134  1  0.7975  6.187030  3.494150 17.819800
135  1  0.7955  8.474220  7.304330 17.775900
136  1  0.7883 10.326700 10.956800 17.805900
137  1  0.7698 12.640000 14.564800 17.831900
138  1  0.7990 14.792400 18.472100 17.629600
139  1  0.8072  8.627980 21.821300 17.843000
140  1  0.7849 10.388000  3.367180 17.532700
141  1  0.8091 12.436300  7.119210 17.795300
142  1  0.8095 14.458600 10.971000 17.810500
143  1  0.7604 12.762000 21.893100 17.587100
144  1  0.7838 14.620300  3.534370 17.536900
145  2 -0.8920 16.713300 14.289900  0.436846
146  2 -0.9020  2.065550 17.900700  0.447549
147  2 -0.8718 16.614900  7.094340  0.589361
148  2 -0.8688  2.106970 10.802900  0.666939
149  2 -0.8903  4.136630 14.369000  0.376106
150  2 -0.8686  6.244740 18.071600  0.309272
151  2 -0.9099 16.916300 -0.398736  0.506399
152  2 -0.8523  2.071240  3.409170  0.293864
153  2 -0.8744  4.068400  7.080320  0.606434
154  2 -0.8695  6.265850 10.934800  0.594504
155  2 -0.8971  8.262650 14.577400  0.425722
156  2 -0.8799 10.314900 18.436500  0.442299
157  2 -0.8530  4.229630 21.715800  0.396539
158  2 -0.9068  6.227070  3.255110  0.476856
159  2 -0.8949  8.158880  7.165060  0.600938
160  2 -0.9312 10.283100 10.716900  0.599403
161  2 -0.8959 12.471700 14.653700  0.576244
162  2 -0.8740 14.702500 18.188100  0.380222
163  2 -0.9059  8.310160 21.784400  0.699579
164  2 -0.9049 10.251500  3.592410  0.550580
165  2 -0.8773 12.597000  7.060510  0.467697
166  2 -0.9128 14.473100 10.764000  0.561190
167  2 -0.8613 12.718200 -0.353376  0.426808
168  2 -0.8643 14.662400  3.286290  0.343781
169  2 -0.3015  2.075430 15.486900 26.800600
170  2 -0.3083  4.204620 19.424200 26.764800
171  2 -0.2972  1.956050  8.603300 26.979800
172  2 -0.3156  4.070570 12.067300 27.006100
173  2 -0.2962  6.066380 15.866000 26.725100
174  2 -0.3246  8.286800 19.578700 26.819500
175  2 -0.3026  2.039090  0.963852 26.604100
176  2 -0.2325  3.742170  4.848540 26.584500
177  2 -0.3639  6.003420  8.327940 27.252700
178  2 -0.3469  8.494130 11.932200 26.979000
179  2 -0.3396 10.306400 15.684900 26.908800
180  2 -0.3715 12.496300 19.440600 26.979000
181  2 -0.3412  6.506970  1.138950 26.800400
182  2 -0.4091  8.291310  4.716700 27.394900
183  2 -0.2841 10.370900  8.358870 26.837100
184  2 -0.3726 12.339000 12.018500 27.110000
185  2 -0.2950 14.868000 15.819500 26.857700
186  2 -0.3193 17.099400 19.281500 26.772200
187  2 -0.3414 10.144700  1.269680 27.054800
188  2 -0.3195 12.171900  4.805040 26.889200
189  2 -0.3068 14.398100  8.533760 26.979600
190  2 -0.2704 -0.543749 12.043000 26.804700
191  2 -0.3100 14.677500  0.771715 26.700900
192  2 -0.3024 16.584100  4.627370 26.650700
193  2 -0.3774  0.055597 14.188900 22.683900
194  2 -0.2911  1.889210 18.174000 23.107200
195  2 -0.3178 16.583200  7.229240 22.889800
196  2 -0.2610  2.091220 10.587200 23.269500
197  2 -0.3354  4.098370 14.515500 22.944100
198  2 -0.3138  6.547750 18.492300 23.043600
199  2 -0.3061  0.049476 -0.313256 22.811500
200  2 -0.2486  2.115640  3.895620 23.244000
201  2 -0.3558  4.064030  6.984370 22.908000
202  2 -0.3726  6.305580 11.015300 22.793800
203  2 -0.3080  8.111660 14.638300 23.073700
204  2 -0.3529 10.684400 18.672100 22.786900
205  2 -0.4082  4.051690 -0.009652 22.678900
206  2 -0.2661  5.851310  3.541740 23.147700
207  2 -0.2841  8.241010  6.882080 23.018000
208  2 -0.2951 10.179800 10.812700 22.923900
209  2 -0.3461 12.648800 14.716800 22.861400
210  2 -0.2735 14.895000 18.447200 22.926200
211  2 -0.3179  8.293280  0.012140 22.807600
212  2 -0.2968 10.394000  3.375800 22.824400
213  2 -0.3700 12.573200  7.249800 22.719600
214  2 -0.2979 14.609000 10.737600 22.922300
215  2 -0.3566 12.593100 21.770500 22.472700
216  2 -0.3368 14.606200  3.479860 22.742100
217  2 -0.8736  2.024490 13.298200  9.916500
218  2 -0.8851  4.214120 16.864100  9.957470
219  2 -0.8747  1.996870  5.858190  9.901300
220  2 -0.8722  4.092610  9.530660  9.977950
221  2 -0.8762  6.289860 13.205400  9.837460
222  2 -0.8556  8.455500 16.730400  9.844050
223  2 -0.8747  1.978810 20.705700  9.976710
224  2 -0.8643  3.883840  2.292750  9.833330
225  2 -0.8750  6.243800  5.945300  9.874770
226  2 -0.8676  8.275130  9.448350  9.933580
227  2 -0.8790 10.528500 13.249400  9.742580
228  2 -0.8812 12.598800 16.622800  9.870640
229  2 -0.8810  6.252420 20.802300  9.838760
230  2 -0.9429  8.426650  2.240770 10.009600
231  2 -0.8653 10.320800  5.876540 10.042800
232  2 -0.8530 12.771500  9.496840  9.819880
233  2 -0.8607 14.876100 13.199800  9.993850
234  2 -0.9157 -0.091044 17.082200  9.959010
235  2 -0.8818 10.464000 20.512700  9.731100
236  2 -0.8436 12.528500  2.265670  9.950170
237  2 -0.8566 14.753400  5.866150  9.972520
238  2 -0.8317 16.798000  9.616840  9.927480
239  2 -0.8722 14.627100 20.523700  9.936220
240  2 -0.8310 16.787800  2.382670  9.772710
241  2 -0.3410 16.873300 14.457900  6.393120
242  2 -0.3294  2.057820 18.055200  6.466450
243  2 -0.3601 16.721000  7.106670  6.355890
244  2 -0.3704  1.955810 10.811900  6.667820
245  2 -0.3326  4.239830 14.447900  6.591960
246  2 -0.3389  6.073530 18.031200  6.517600
247  2 -0.3905  0.059306 21.788500  6.571510
248  2 -0.3446  2.068200  3.333830  6.442280
249  2 -0.3804  4.271140  7.227250  6.580410
250  2 -0.3832  6.390050 10.560800  6.718030
251  2 -0.3447  8.388050 14.422600  6.465240
252  2 -0.3609 10.575000 17.938200  6.480070
253  2 -0.3464  4.256110 21.874300  6.462980
254  2 -0.3706  6.176820  3.384650  6.488700
255  2 -0.3151  8.355740  6.859990  6.593000
256  2 -0.3108 10.349300 10.699900  6.407570
257  2 -0.3357 12.561700 14.246500  6.477530
258  2 -0.3690 14.504700 18.048200  6.530390
259  2 -0.3146  8.253440 21.715400  6.340310
260  2 -0.3366 10.422100  3.353480  6.488710
261  2 -0.3451 12.310600  7.109710  6.466040
262  2 -0.3392 14.793400 10.848800  6.572070
263  2 -0.2889 12.524700 21.809200  6.355780
264  2 -0.3176 14.672300  3.384390  6.483480
265  2 -0.3619  2.107310 13.221700  3.940240
266  2 -0.3306  3.905840 16.849600  3.891140
267  2 -0.3678  1.932890  5.914470  3.998800
268  2 -0.3373  3.880800  9.649220  4.002250
269  2 -0.3384  6.016200 13.307400  3.958900
270  2 -0.3714  8.286110 16.965000  3.823440
271  2 -0.3435  2.337650 20.410600  3.751900
272  2 -0.3534  4.015750  2.116330  3.861030
273  2 -0.3856  6.097970  5.894640  3.800180
274  2 -0.3167  8.302750  9.478030  3.922750
275  2 -0.3600 10.612200 13.154600  3.885180
276  2 -0.3760 12.608600 16.875100  3.784770
277  2 -0.3330  6.258580 20.459800  3.858710
278  2 -0.3126  8.289160  2.097910  4.018160
279  2 -0.3498 10.470400  5.714640  3.824290
280  2 -0.3980 12.438400  9.582040  3.785760
281  2 -0.3337 14.758200 13.129400  3.984080
282  2 -0.3822 -0.250356 17.058400  3.618210
283  2 -0.3702 10.264300 20.553200  3.832200
284  2 -0.3000 12.546100  2.130790  3.959320
285  2 -0.3295 14.451000  5.710300  3.900310
286  2 -0.3453 16.857800  9.557590  4.092350
287  2 -0.3450 14.813400 20.613200  3.850290
288  2 -0.3339 17.040300  2.311310  3.938080
289  2 -0.9190  2.165120 15.700200 19.487500
290  2 -0.8992  4.189690 19.557000 19.474100
291  2 -0.9045  1.924200  8.401080 19.522800
292  2 -0.9130  4.077840 12.053800 19.495700
293  2 -0.8892  6.237870 15.998300 19.560600
294  2 -0.8729  8.291770 19.442000 19.418700
295  2 -0.8947  2.009680  1.210060 19.250600
296  2 -0.9210  3.997670  4.918480 19.319100
297  2 -0.8849  6.162400  8.565670 19.425900
298  2 -0.9128  8.286430 12.318000 19.552800
299  2 -0.8736 10.418400 15.897700 19.481900
300  2 -0.9073 12.692900 19.216900 19.442800
301  2 -0.8760  6.252230  1.014160 19.351500
302  2 -0.8648  8.274630  4.743920 19.383700
303  2 -0.9157 10.346300  8.494800 19.438800
304  2 -0.9045 12.394800 12.143600 19.502400
305  2 -0.8515 14.749900 15.783000 19.534800
306  2 -0.9278 16.741500 19.608200 19.369400
307  2 -0.9486 10.537400  0.925984 19.388300
308  2 -0.8954 12.334600  4.822870 19.453200
309  2 -0.8433 14.636000  8.365340 19.299400
310  2 -0.9115 16.664300 12.021200 19.345800
311  2 -0.8977 14.658900  1.132220 19.296300
312  2 -0.8641 16.889600  4.807730 19.276500
313  2 -0.3599  2.207290 13.370200 16.190800
314  2 -0.2793  4.089600 17.001200 15.876000
315  2 -0.3620  2.157860  6.065850 15.804900
316  2 -0.3615  4.106530  9.581420 16.134400
317  2 -0.3596  6.013350 13.257700 16.118000
318  2 -0.3238  8.143260 16.804800 16.032500
319  2 -0.3413  1.828630 20.712300 15.863800
320  2 -0.3108  4.108070  2.423630 15.866900
321  2 -0.2844  6.120030  5.803660 15.958900
322  2 -0.3386  8.155400  9.718360 16.002300
323  2 -0.3111 10.284300 13.291500 16.014600
324  2 -0.3341 12.613200 17.007600 15.984700
325  2 -0.3200  6.604700 20.776800 16.062300
326  2 -0.3386  8.220040  2.188960 16.048700
327  2 -0.3855 10.481300  5.790050 16.122700
328  2 -0.3498 12.557200  9.710150 16.158100
329  2 -0.3138 14.797500 13.302400 15.863800
330  2 -0.3441 16.899100 17.068600 16.067300
331  2 -0.3522 10.502600 20.498000 15.934800
332  2 -0.3448 12.742600  2.148500 15.796000
333  2 -0.3448 14.691400  6.032540 15.936100
334  2 -0.3502 16.525900  9.671950 16.119300
335  2 -0.3777 14.789300 20.752800 15.893100
336  2 -0.3336 -0.317252  2.346500 15.910800
337  2 -0.3299  1.926150 15.683000 13.426800
338  2 -0.3637  4.083920 19.458500 13.188200
339  2 -0.3570  2.154700  8.472640 13.402000
340  2 -0.3345  4.298980 12.075800 13.228900
341  2 -0.3379  6.195700 15.733000 13.214800
342  2 -0.3559  8.417350 19.458300 13.207100
343  2 -0.3290  2.097220  1.142390 13.408900
344  2 -0.3476  4.142930  4.718580 13.310500
345  2 -0.3311  6.043670  8.185170 13.403600
346  2 -0.3503  8.316960 12.123400 13.383900
347  2 -0.3269 10.491500 15.671400 13.347400
348  2 -0.3635 12.431700 19.361000 13.248800
349  2 -0.3546  6.217770  1.011520 13.256700
350  2 -0.3527  8.254450  4.547580 13.423300
351  2 -0.3565 10.385600  8.302060 13.296800
352  2 -0.3462 12.413200 11.963600 13.523800
353  2 -0.3256 14.687100 15.706200 13.565900
354  2 -0.3550 -0.124848 19.410800 13.115900
355  2 -0.3603 10.412300  0.914627 13.290500
356  2 -0.3355 12.560300  4.637520 13.435000
357  2 -0.3322 14.588000  8.487360 13.491200
358  2 -0.3830 -0.035864 12.083200 13.376700
359  2 -0.3574 14.710400  1.302170 13.113500
360  2 -0.3692 -0.016482  4.699410 13.353000

