Generated by pymatgen.io.lammps.data.LammpsData

360  atoms

  2  atom types

0.000000 16.871067  xlo xhi
0.000000 22.058404  ylo yhi
0.000000 29.928687  zlo zhi

Masses

1  208.9804
2   78.9600

Atoms

1    1  0.7812  1.742380 13.483300 21.654800
2    1  0.8292  3.598810 16.872300 22.241900
3    1  0.7211  2.269170  6.184260 22.363000
4    1  0.7723  4.000970 10.113500 21.590700
5    1  0.8418  5.525790 13.586100 21.611700
6    1  0.7971  8.536560 17.181300 21.716700
7    1  0.7754  1.574710 21.004600 21.787900
8    1  0.7399  3.902980  2.482370 22.323200
9    1  0.8036  6.065060  6.147920 22.585600
10   1  0.8102  7.989550  9.732860 22.029200
11   1  0.7462 10.306000 13.263400 21.750600
12   1  0.7851 12.294600 17.255200 22.003200
13   1  0.7986  5.902670 19.926500 22.000900
14   1  0.8363  7.827490  2.302650 22.495500
15   1  0.7885 10.087200  6.411240 21.502400
16   1  0.8115 11.928900  9.909430 21.489600
17   1  0.7784 14.439200 13.902300 22.161400
18   1  0.8038 16.768800 17.360800 22.128300
19   1  0.7116 10.128100 20.968300 21.940300
20   1  0.7976 12.424000  3.587660 23.581900
21   1  0.7642 14.741600  6.425700 23.809500
22   1  0.8029 16.312400  9.821900 22.166100
23   1  0.7376 14.910500 21.115300 22.134500
24   1  0.7850 16.729000  2.701050 22.542500
25   1  0.8471  1.917010 13.161500 28.227900
26   1  0.7022  4.278010 17.364800 28.673800
27   1  0.8310  2.057970  6.228190 28.511800
28   1  0.7658  3.768570  9.785640 28.447000
29   1  0.7715  6.074050 13.643300 28.780600
30   1  0.7373  8.096180 17.533300 28.586000
31   1  0.7206  1.677630 21.088900 28.067500
32   1  0.6130  3.754840  1.795700 28.970000
33   1  0.8531  5.787920  5.700230 28.670900
34   1  0.8510  8.166350  9.981780 28.527700
35   1  0.7616 10.181200 14.092900 28.531800
36   1  0.7727 12.648500 17.345800 28.834000
37   1  0.6461  5.951350 21.034500 28.991100
38   1  0.8185  9.144700  3.048290 28.192600
39   1  0.8211  9.837180  6.311290 26.614300
40   1  0.7264 12.419800 10.471200 28.975000
41   1  0.6806 14.371400 13.492800 28.232300
42   1  0.7168  0.439547 16.706100 28.465400
43   1  0.7396 10.000900 20.235000 28.112300
44   1  0.8241 13.157100  2.448130 28.644500
45   1  0.7791 14.137900  6.626780 28.555400
46   1  0.7536  0.166170  9.833600 27.402500
47   1  0.8238 14.014700 21.135700 28.633100
48   1  0.7747 16.698700  2.976740 28.548200
49   1  0.6999  2.009540 16.088100  2.193470
50   1  0.7768  3.408730 19.361800  2.331690
51   1  0.7658  1.784270  8.669680  2.108600
52   1  0.7853  3.507760 11.920700  2.546490
53   1  0.6427  5.574370 16.359200  2.290110
54   1  0.7522  7.707270 20.003500  2.147060
55   1  0.7461  2.190610  1.530630  2.421930
56   1  0.8226  4.362910  4.953090  2.018710
57   1  0.7657  5.861900  9.057320  2.640230
58   1  0.7456  7.654050 12.226200  2.323250
59   1  0.8084 11.073600 16.707800  2.379510
60   1  0.7625 12.402400 20.204300  1.847720
61   1  0.7330  6.191710  1.363140  1.840270
62   1  0.7979  8.306300  5.184140  2.197490
63   1  0.7069  9.484480  8.363550  2.756190
64   1  0.6572 12.832000 12.679200  2.085600
65   1  0.6609 15.000700 16.084000  2.080890
66   1  0.7616 16.243900 19.868600  1.856680
67   1  0.8342 10.765500  1.991030  1.890030
68   1  0.8877 12.495900  5.162930  1.781550
69   1  0.7395 14.776400  9.157870  2.223850
70   1  0.8290 16.358300 12.013800  2.403180
71   1  0.8575 14.389400  1.582490  2.369680
72   1  0.8500 16.491700  5.361770  2.083850
73   1  0.7615  2.097500 16.635300  8.457640
74   1  0.7234  4.270160 19.504900  8.674830
75   1  0.7585  2.099020  8.529780  8.284130
76   1  0.8700  4.080110 12.249200  9.104540
77   1  0.7102  6.278370 16.184900  8.465270
78   1  0.7805  8.287420 19.287000  9.023930
79   1  0.8658  1.837730  0.332487  7.167470
80   1  0.8341  4.130610  5.051370  8.651240
81   1  0.8116  6.650580  9.383950  9.048680
82   1  0.8398  8.732490 12.826600  8.159570
83   1  0.6114 10.653400 16.351500  8.709930
84   1  0.7808 12.423900 19.433900  8.896940
85   1  0.7467  6.046080  1.152210  9.395590
86   1  0.6592  8.102580  5.401830  8.592670
87   1  0.7960 10.278500  8.576070  8.889300
88   1  0.6843 12.325600 13.127000  8.823590
89   1  0.7799 15.111200 16.577800  8.391990
90   1  0.7316 -0.415220 19.776400  9.715560
91   1  0.7122 10.006700  1.123220  8.796420
92   1  0.7437 12.698400  5.044290  9.052480
93   1  0.7275 15.133400  8.766980  8.660250
94   1  0.8027  0.016504 12.438700  8.935590
95   1  0.7764 14.256700  1.374260  8.423720
96   1  0.7571 -0.102254  5.102720  8.043620
97   1  0.7778  0.226232 15.127700 12.440000
98   1  0.7387  2.207290 18.814100 12.481900
99   1  0.7568 16.813000  7.681110 12.067100
100  1  0.7572  2.188950 10.910100 12.190000
101  1  0.8368  4.078450 14.683000 12.577400
102  1  0.8388  6.285130 18.764100 12.636900
103  1  0.6756 16.766300  0.183958 12.914700
104  1  0.7822  2.375530  3.529860 12.515400
105  1  0.7440  3.931200  7.812360 12.039500
106  1  0.7627  6.592960 10.491900 12.568500
107  1  0.8321  8.314710 14.603400 12.223500
108  1  0.7766 10.081300 18.028500 12.067600
109  1  0.6900  4.157460  0.217037 12.396000
110  1  0.6886  6.460270  3.583470 12.560200
111  1  0.7633  8.252630  7.406320 12.828400
112  1  0.8101 10.718500 10.980100 12.356800
113  1  0.7388 13.092300 14.727500 12.840200
114  1  0.7410 15.045400 18.186000 12.798100
115  1  0.8195  8.596560 22.018800 12.245800
116  1  0.7848 10.501400  3.473620 12.337700
117  1  0.9010 12.814300  7.376520 12.637100
118  1  0.6740 14.858000 11.469900 11.979800
119  1  0.7983 12.755400 -0.082742 13.116700
120  1  0.6654 15.062500  3.752630 11.871200
121  1  0.7662 16.286000 14.499800 19.039600
122  1  0.8561  2.169630 18.306900 18.725500
123  1  0.7347 16.385400  7.724420 18.989500
124  1  0.7836  1.448680 11.027000 18.035700
125  1  0.8122  3.747170 14.737200 18.294000
126  1  0.8550  6.364290 18.512000 18.385800
127  1  0.8084 17.071100 22.002500 18.253800
128  1  0.7400  2.140880  3.910710 18.903700
129  1  0.8132  3.789340  7.744390 18.700200
130  1  0.8640  6.174460 11.027900 17.757600
131  1  0.7583  8.447600 14.554900 18.420600
132  1  0.7800 10.226500 18.979200 18.437800
133  1  0.8054  4.617520  0.075349 18.640900
134  1  0.7983  6.069140  3.704070 18.541700
135  1  0.8249  7.773690  7.615290 18.847100
136  1  0.8090 10.112200 10.815500 18.283400
137  1  0.8178 12.361100 14.784400 18.970700
138  1  0.8407 14.781300 18.473800 19.183500
139  1  0.8326  8.223690  0.138119 18.203200
140  1  0.7604  9.724820  3.875710 18.495800
141  1  0.7486 11.902700  6.752950 18.326000
142  1  0.8280 14.381800 11.106900 18.346500
143  1  0.7047 12.268700  0.644264 18.864600
144  1  0.7736 14.699600  3.450880 18.639500
145  2 -0.7586 16.979700 14.366700 30.838500
146  2 -0.8652  1.889940 18.585700 30.319900
147  2 -0.7786 16.689400  7.569040  0.316131
148  2 -0.7923  1.911550 11.158400 30.455800
149  2 -0.8008  3.441290 14.307500 -0.105911
150  2 -0.9781  6.050420 18.423700  0.256224
151  2 -0.7423 16.154800  0.680616  0.487107
152  2 -0.8240  1.865400  4.258490  0.256990
153  2 -0.7792  4.270210  7.414680  0.614304
154  2 -0.8355  5.982440 10.840800  0.369644
155  2 -0.7503  7.814990 14.808200  0.609152
156  2 -0.8451 10.299600 18.698700  0.625250
157  2 -0.8701  3.490640 21.671200 31.126500
158  2 -0.8024  6.481800  3.797810  0.524264
159  2 -0.7156  7.908440  7.508240  0.611162
160  2 -0.7130  9.961170 10.898900  0.516773
161  2 -0.9209 12.195900 15.124500 30.123000
162  2 -0.9198 14.277800 18.964400 -0.020261
163  2 -0.7057  8.685800  0.226344  0.083447
164  2 -0.8275 10.735500  4.084380 30.287600
165  2 -0.7000 12.394700  7.684480  0.222140
166  2 -0.9067 14.984800 11.412200  0.326248
167  2 -0.9012 12.505600 22.560100  0.616172
168  2 -0.8286 14.389100  3.950330  0.480446
169  2 -0.3357  2.327360 16.249600 26.701400
170  2 -0.2109  3.995030 19.733300 26.143700
171  2 -0.4383  2.473050  8.629800 26.608100
172  2 -0.3277  3.897610 12.351300 26.708200
173  2 -0.2657  5.708660 15.675300 26.671000
174  2 -0.3290  7.542040 19.472600 26.629700
175  2 -0.4472  1.714810  1.467850 26.985100
176  2 -0.3891  3.820980  4.391770 27.314100
177  2 -0.3172  6.470250  7.857750 26.866500
178  2 -0.4050  8.078090 12.253500 27.201500
179  2 -0.4396 10.381100 16.515000 27.074700
180  2 -0.3215 12.582400 19.780700 26.602900
181  2 -0.3632  6.477600  0.757728 27.255800
182  2 -0.4530  7.416590  4.685030 26.950700
183  2 -0.3277 10.406100  9.133270 26.833500
184  2 -0.2905 11.956200 12.574700 26.457500
185  2 -0.3494 15.051500 15.876800 26.788600
186  2 -0.2440 -0.356044 19.516600 26.612700
187  2 -0.4289 11.045100  1.664690 26.968300
188  2 -0.5291 12.395700  4.647490 26.883100
189  2 -0.3977 14.213000  9.238360 26.689200
190  2 -0.3498 17.074800 12.637400 26.184800
191  2 -0.3740 15.018200  1.274820 26.917000
192  2 -0.4475 16.728000  6.389890 27.016800
193  2 -0.4484 -0.587789 14.962000 23.458300
194  2 -0.5434  1.977400 18.904800 23.094300
195  2 -0.4260 17.190400  7.837310 24.090700
196  2 -0.4060  2.035290 11.141900 23.311900
197  2 -0.4446  3.822690 14.432000 23.269200
198  2 -0.2432  5.741850 17.864200 23.990900
199  2 -0.2670 15.854300 -0.229003 24.410500
200  2 -0.3770  1.690990  3.913590 24.198500
201  2 -0.3735  4.242540  7.604590 23.947200
202  2 -0.2603  6.215510 11.641300 23.822000
203  2 -0.4592  8.025980 14.511600 22.577200
204  2 -0.3422  9.273210 18.513600 23.858100
205  2 -0.2717  4.273440 -0.218819 24.010300
206  2 -0.4345  5.965070  3.861370 23.801900
207  2 -0.4103  8.257610  7.566930 23.967300
208  2 -0.3374 10.584200 10.409600 23.597000
209  2 -0.3242 12.187100 15.215900 23.911700
210  2 -0.2444 14.633000 18.395700 24.124800
211  2 -0.3575  7.829910 21.482800 23.600100
212  2 -0.4890  9.957410  4.433310 23.956400
213  2 -0.4465 11.911100  7.352560 23.716000
214  2 -0.3070 14.506500 11.326800 23.809300
215  2 -0.2759 12.650100  0.219316 23.994100
216  2 -0.4206 14.935000  3.750650 24.778500
217  2 -0.7972  1.796900 13.506600 10.490800
218  2 -0.7862  4.097600 17.570400 10.884100
219  2 -0.7986  1.967240  5.908120 10.023100
220  2 -0.8795  4.232440  9.891470 10.391100
221  2 -0.7211  6.108130 13.634200 11.327900
222  2 -0.8436  7.641830 17.247100 10.823000
223  2 -0.6876  2.189920 21.530100  9.854890
224  2 -0.7508  3.422700  2.247860 10.688100
225  2 -0.8194  6.134040  6.438560 10.214400
226  2 -0.8673  8.626800  9.677840 11.030500
227  2 -0.9280  9.892160 13.651800 10.118900
228  2 -0.8194 12.492600 17.063400 11.174500
229  2 -0.8547  6.811030 20.573800 10.546400
230  2 -0.9478  7.942780  2.234110 11.114700
231  2 -0.7694 11.000700  6.316600 11.053500
232  2 -0.7081 12.773700  9.619930 10.801800
233  2 -0.8238 14.814800 14.260300 10.286900
234  2 -0.9198 17.131100 17.375100 10.651300
235  2 -0.8109 10.404800 20.173900 10.589200
236  2 -0.8285 11.983400  2.133380 10.717400
237  2 -0.8212 14.723700  6.250980 10.218900
238  2 -0.9358  0.211065  9.908350 10.551500
239  2 -0.7893 14.443000 20.908500 10.858400
240  2 -0.6494 -0.324264  2.017940  9.546010
241  2 -0.3266  0.126779 15.503900  6.905290
242  2 -0.4241  1.736560 19.378300  7.095690
243  2 -0.2825 -0.321428  7.184140  5.923470
244  2 -0.3937  2.000170 11.311100  7.390040
245  2 -0.3918  4.054150 14.760400  7.345070
246  2 -0.3139  6.319520 18.251600  6.519760
247  2 -0.3430 15.071900 -0.114731  4.083250
248  2 -0.2817  2.258350  3.396690  6.349710
249  2 -0.3733  4.353020  7.593380  7.378790
250  2 -0.5162  6.246820 11.593100  7.772480
251  2 -0.3345  8.386290 15.188100  6.419570
252  2 -0.4237 10.664800 18.322200  6.975180
253  2 -0.3391  4.579330 -0.536889  7.039220
254  2 -0.3707  6.042260  3.480090  7.407470
255  2 -0.4307  8.314330  7.879710  6.991040
256  2 -0.4255 10.597000 11.111200  7.448400
257  2 -0.3289 12.817700 15.004600  6.692090
258  2 -0.4550 14.951500 19.625400  7.634030
259  2 -0.3292  7.912920 22.117300  7.394190
260  2 -0.2242  9.620480  4.543170  5.610900
261  2 -0.3922 12.736600  7.426190  7.770810
262  2 -0.2894 14.872300 11.672700  6.813090
263  2 -0.3491 11.906900 -0.053500  7.042430
264  2 -0.4198 14.369700  3.702540  6.985120
265  2 -0.3413  1.560250 12.932800  3.917500
266  2 -0.3377  4.053000 17.362000  4.784430
267  2 -0.3539  2.265770  6.177950  3.735470
268  2 -0.4154  3.384780  9.665620  4.054530
269  2 -0.2769  5.284110 13.191900  4.670490
270  2 -0.2688  8.269040 17.355000  3.759790
271  2 -0.3847  1.535570 21.312900  3.723820
272  2 -0.4269  4.570180  2.502880  3.644330
273  2 -0.4316  6.003800  6.320080  3.562730
274  2 -0.3769  7.937700 10.536100  4.524870
275  2 -0.2925 10.261800 13.581700  3.571070
276  2 -0.2999 13.249500 16.935700  4.096280
277  2 -0.2736  5.972680 20.733800  4.122220
278  2 -0.4421  8.262480  2.820400  3.139980
279  2 -0.1243 11.211300  6.016950  5.430530
280  2 -0.3177 11.947100  9.614550  3.909830
281  2 -0.3230 14.554000 13.667300  4.175860
282  2 -0.4031  0.254303 17.632000  3.632300
283  2 -0.2945 10.363600 21.266300  3.647400
284  2 -0.4281 12.759000  3.311400  3.725970
285  2 -0.4539 14.338700  6.488610  3.118030
286  2 -0.3812 16.749900  9.746640  4.240550
287  2 -0.2101 13.784500 19.258100  4.130790
288  2 -0.3657 16.544100  3.528040  4.003950
289  2 -0.9070  1.747760 15.857000 20.572300
290  2 -0.8385  4.262390 19.583700 20.094000
291  2 -0.8697  1.905860  8.863510 20.006500
292  2 -0.8583  4.050430 12.581200 19.777300
293  2 -0.7754  6.151880 16.001500 20.158100
294  2 -0.9292  8.094170 19.621600 20.049500
295  2 -0.8683  1.786730  1.192120 20.308300
296  2 -0.8833  4.168310  4.815360 20.415200
297  2 -0.8925  5.871760  8.921860 20.098800
298  2 -0.7916  7.980550 11.874400 19.697100
299  2 -0.8903 10.458800 15.896700 20.434500
300  2 -0.8450 12.591000 19.451200 20.507800
301  2 -0.8081  6.159960  1.328830 20.369900
302  2 -0.8214  7.955310  5.047660 20.519300
303  2 -0.9457  9.589730  8.720050 20.324600
304  2 -0.8885 12.496300 12.118300 20.331300
305  2 -0.9044 14.257600 16.050200 20.229400
306  2 -0.9183 16.972800 19.593100 20.396700
307  2 -0.7343  9.995910  1.509630 20.485200
308  2 -0.7314 12.153100  4.892990 20.375600
309  2 -0.7950 14.277500  8.836910 20.264400
310  2 -0.8482 16.266900 11.951900 20.261800
311  2 -0.7423 14.613700  1.543040 20.957700
312  2 -0.7633 -0.366565  4.923250 21.121300
313  2 -0.4379  1.851410 13.688400 17.008900
314  2 -0.3845  4.516390 17.287600 16.933100
315  2 -0.3072  2.111340  6.552110 17.044500
316  2 -0.3893  3.844190  9.900480 16.761900
317  2 -0.3090  6.778820 13.506400 16.356000
318  2 -0.3098  8.083960 17.416200 16.483400
319  2 -0.3642  1.917200 20.642600 17.080400
320  2 -0.3909  4.349770  2.636920 16.932400
321  2 -0.2771  6.142620  6.070270 16.606000
322  2 -0.3375  8.349300  9.657520 16.470900
323  2 -0.4006 10.482300 13.026800 16.940600
324  2 -0.3391 12.041800 16.782900 17.322100
325  2 -0.4030  6.366130 20.726600 16.834800
326  2 -0.4329  8.078240  2.008970 16.775300
327  2 -0.4926  9.591990  6.621360 17.175100
328  2 -0.3136 12.367600  9.611650 16.694200
329  2 -0.3502 14.858600 13.090400 16.791800
330  2 -0.4008 16.649900 17.097300 17.804400
331  2 -0.4996 10.663100 21.317700 17.192700
332  2 -0.3715 12.256400  3.096830 16.911800
333  2 -0.2327 14.474400  5.933470 16.507100
334  2 -0.3081 16.103900  9.099000 16.567400
335  2 -0.3693 15.014600 20.968000 16.847600
336  2 -0.3983 16.654700  3.042730 17.117800
337  2 -0.3367  2.294910 15.875000 14.293500
338  2 -0.4056  3.775190 20.238700 14.154200
339  2 -0.4231  2.232150  8.572290 13.749400
340  2 -0.3607  4.620130 11.733900 14.192300
341  2 -0.3085  6.090460 15.673100 13.927000
342  2 -0.3164  8.548720 19.818900 14.264700
343  2 -0.3283  2.008590  1.303330 14.764700
344  2 -0.3039  4.044610  5.237570 14.175100
345  2 -0.3521  6.215400  8.213470 14.436700
346  2 -0.3039  8.568060 11.787600 14.210700
347  2 -0.3022 10.078400 15.572000 14.322900
348  2 -0.3140 12.746000 19.027500 14.283800
349  2 -0.3197  6.250470  0.421189 14.341400
350  2 -0.3787  8.869780  4.889510 14.266700
351  2 -0.3261 10.605300  8.980540 14.005200
352  2 -0.3857 12.933000 11.985500 14.020900
353  2 -0.3408 14.982100 15.539200 14.502600
354  2 -0.4438  0.347460 19.264800 14.254600
355  2 -0.3373 10.244500  1.059290 14.248400
356  2 -0.3361 12.999200  4.798120 13.970700
357  2 -0.3171 14.385000  8.891830 13.982500
358  2 -0.3554  0.301523 12.831100 14.049900
359  2 -0.4382 14.920000  1.383430 14.367600
360  2 -0.3769 17.282800  5.097170 13.593500

