Generated by pymatgen.io.lammps.data.LammpsData

360  atoms

  2  atom types

0.000000 16.677463  xlo xhi
0.000000 21.699897  ylo yhi
0.000000 28.493178  zlo zhi

Masses

1  208.9804
2   78.9600

Atoms

1    1  0.7365  2.252210 13.733400 20.488200
2    1  0.6550  3.671530 17.682300 20.190800
3    1  0.8135  0.367409  5.725840 20.300200
4    1  0.7954  2.980540  9.854160 20.720200
5    1  0.7090  5.263760 13.760800 19.718300
6    1  0.8432  7.687210 17.497800 20.968700
7    1  0.8044  1.263980 20.419500 21.551000
8    1  0.7669  3.292870  2.572280 20.270500
9    1  0.9032  5.273890  6.734690 22.498600
10   1  0.7916  7.139230 10.755800 20.365500
11   1  0.8446  9.715050 14.143200 20.364700
12   1  0.7636 11.730400 17.384900 20.843600
13   1  0.7345  5.194040 21.350400 21.210700
14   1  0.7876  7.507750  3.130500 20.637300
15   1  0.7836  8.974660  6.791490 20.080600
16   1  0.7775 11.570900  9.686650 20.058200
17   1  0.8338 13.414900 13.198800 20.414300
18   1  0.7964 15.656200 16.835000 20.259600
19   1  0.8012 10.021800 20.987100 20.840600
20   1  0.8194 11.108400  2.930350 21.152000
21   1  0.8557 13.472100  6.643590 20.628900
22   1  0.8405 15.622000 10.211900 20.491500
23   1  0.8450 13.798600 21.161200 20.333900
24   1  0.7568 15.265100  2.525060 21.731700
25   1  0.8110  1.486240 13.401400 26.191100
26   1  0.7688  4.096790 17.084500 26.598900
27   1  0.8803  0.705434  6.302130 26.066300
28   1  0.7309  3.313770  9.569750 26.513900
29   1  0.7200  5.599400 13.420800 26.036300
30   1  0.7454  7.703710 17.333700 26.904000
31   1  0.8360  1.473990 19.833000 26.427700
32   1  0.7702  2.679100  2.092730 25.098700
33   1  0.7635  4.889100  6.439240 26.878300
34   1  0.6892  7.239480 10.191200 26.486700
35   1  0.7407  9.213220 13.610400 26.650200
36   1  0.6687 12.163300 16.681900 27.002000
37   1  0.9199  5.722020 21.076500 27.028300
38   1  0.8027  7.360530  3.304050 24.548600
39   1  0.7728  8.991660  6.274480 26.472100
40   1  0.8505 11.049200  9.706130 26.271000
41   1  0.7481 13.790800 13.298400 26.584100
42   1  0.7605 16.034300 16.547500 26.670300
43   1  0.8288  9.958090 20.301700 26.722400
44   1  0.8626 11.054900  2.769980 26.542900
45   1  0.7877 13.421000  6.051920 26.279500
46   1  0.8278 15.657100 10.226200 26.800100
47   1  0.7131 14.244700 20.540000 26.636900
48   1  0.6314 15.238500  2.865480 26.637700
49   1  0.7942  1.264930 15.248700  2.030030
50   1  0.7999  3.183500 19.803700  1.848430
51   1  0.8086  0.937509  8.695760  1.759820
52   1  0.8610  3.645700 12.468100  2.248350
53   1  0.7375  5.514890 15.817100  1.055050
54   1  0.8216  7.301050 19.504800  1.771020
55   1  0.8116  1.438170  1.987490  1.445760
56   1  0.8254  3.161250  5.883190  2.064740
57   1  0.7071  5.174930  9.458350  1.046830
58   1  0.7463  7.717840 12.187200  1.322340
59   1  0.8965  9.807820 16.044900  1.813180
60   1  0.6473 11.817900 19.651300  1.446070
61   1  0.8617  6.358130  0.464403  4.230090
62   1  0.8291  6.255560  3.840640  0.656206
63   1  0.7285  8.766110  8.377440  0.960940
64   1  0.7614 11.452300 12.186600  1.827400
65   1  0.8933 13.932700 15.252700  1.809400
66   1  0.8089 16.399000 18.836400  2.013630
67   1  0.6311  9.755390  1.013120  1.968670
68   1  0.7689 10.711200  4.731870  1.417670
69   1  0.7664 11.919900  8.753270  2.636100
70   1  0.8646 15.703000 11.819900  2.617540
71   1  0.7024 14.120800  0.782506  1.686510
72   1  0.8640 15.347500  4.819070  1.536600
73   1  0.7074  0.935189 16.281200  7.520930
74   1  0.7494  3.838060 19.110200  6.172680
75   1  0.7352  0.990747  8.079230  6.238010
76   1  0.7821  3.602500 12.653200  7.863880
77   1  0.7757  6.032530 16.948500 10.581000
78   1  0.8478  5.927370 17.331100  5.477960
79   1  0.7800  1.837040  1.104320  7.504100
80   1  0.6416  3.722420  4.355580  5.989280
81   1  0.7145  4.929210  9.216080  7.435910
82   1  0.8544  7.312280 13.147800  8.318860
83   1  0.7945  8.998660 17.981400  8.362230
84   1  0.6587 12.040400 19.645900  8.832240
85   1  0.8263  6.696100 21.625200  8.950500
86   1  0.8001  7.077400  5.053770  6.737160
87   1  0.8570  9.488310  8.591790  6.503150
88   1  0.8338 12.549100 12.185400  7.158660
89   1  0.7356 13.949300 15.446100  8.177850
90   1  0.8116 15.949400 19.795100  7.241280
91   1  0.7470  9.600180  1.415540  5.704720
92   1  0.8955 11.361500  4.976400  6.839080
93   1  0.8229 13.914900  8.748660  7.006840
94   1  0.7788 16.258200 12.258100  7.660280
95   1  0.6752 13.465900  0.957719  7.739140
96   1  0.7173 16.198600  4.990500  7.036270
97   1  0.7030 15.515400 14.401600 11.534500
98   1  0.8475  2.038270 18.110900 10.157700
99   1  0.7869 15.823600  7.304820 11.153300
100  1  0.7485  0.868785 11.000900 10.631400
101  1  0.8380  2.699320 14.728300 13.250800
102  1  0.8145  5.094450 19.541400 14.039700
103  1  0.7582 15.841100  1.640170 11.967700
104  1  0.6293  1.797350  3.954970  9.187980
105  1  0.7986  3.278670  8.048170 10.859300
106  1  0.8399  5.522980 11.113000 11.507100
107  1  0.6924  8.109800 15.099500 13.309600
108  1  0.6336  9.389280 18.049400 13.387300
109  1  0.7990  3.165730  0.384229 11.583000
110  1  0.8821  5.260490  3.985900 10.662600
111  1  0.8193  7.232910  7.705480 10.880600
112  1  0.8915  9.829370 11.159800 10.384200
113  1  0.7332 11.473800 15.205100 12.512400
114  1  0.7733 14.081200 17.527000 11.397200
115  1  0.8289  9.528190 21.554300 11.163600
116  1  0.8440  9.543960  4.678430 11.603800
117  1  0.7352 11.624700  7.586130 10.668900
118  1  0.8310 13.754400 11.047500 10.582600
119  1  0.8787 12.561700  1.838880 13.417500
120  1  0.7509 13.370400  3.751880 10.022000
121  1  0.8034 15.468500 14.195400 16.814700
122  1  0.6528  2.848450 17.702900 17.028800
123  1  0.8059 15.844900  7.802980 16.999000
124  1  0.6587  1.487860 10.714600 17.025500
125  1  0.5943  2.284340 13.788300 17.545700
126  1  0.6375  5.523140 18.850300 18.403300
127  1  0.7410 14.702200  0.623134 16.294900
128  1  0.7704  0.298449  3.741900 16.172500
129  1  0.7008  3.022220  7.445780 16.313600
130  1  0.7702  5.300230 10.830600 16.497800
131  1  0.7014  8.191860 15.621500 16.605700
132  1  0.7946  9.892910 18.958600 17.097200
133  1  0.7706  0.504290 19.554400 16.139000
134  1  0.8795  4.513350  3.266260 16.515300
135  1  0.6749  8.249390  7.173920 16.469200
136  1  0.7891  9.489520 11.351700 16.355000
137  1  0.6998 11.474800 14.582000 17.108300
138  1  0.8570 16.249100 16.573400 14.360200
139  1  0.8455  7.731780 21.523600 16.464400
140  1  0.8188  9.043930  3.803450 16.991000
141  1  0.6978 11.490800  8.020310 16.734900
142  1  0.7951 13.176600 11.191900 17.257800
143  1  0.7621 13.920200 17.575300 17.559900
144  1  0.7983 13.169100  4.395020 16.963100
145  2 -0.7425 15.898100 14.077500 28.444000
146  2 -0.7823  1.605460 18.051800 28.246100
147  2 -0.6086 15.454600  7.284650 28.049800
148  2 -0.6869  0.972547 11.038200 28.316900
149  2 -0.7554  2.971110 14.431000 28.297700
150  2 -0.7957  5.260640 18.767200  0.048724
151  2 -0.7412 16.344300 21.053000 28.488600
152  2 -0.7046  0.615240  4.118110 27.684100
153  2 -0.8489  2.833010  7.519690 28.486900
154  2 -0.8881  5.079140 11.737000 28.302000
155  2 -0.8815  7.694910 14.820900  0.057422
156  2 -0.9026  9.419310 18.131600  0.442356
157  2 -0.4718  5.212790 21.608400  1.150330
158  2 -0.4250  3.536690  3.576920 28.336900
159  2 -0.8986  6.975850  7.398690 28.247000
160  2 -0.9346  9.432350 10.919100 27.873300
161  2 -0.8606 11.863600 14.494400  0.212865
162  2 -0.8101 14.388300 17.305700  0.386082
163  2 -0.6888  8.169020 21.310900 28.400500
164  2 -0.7224  8.937580  3.450630 27.896300
165  2 -0.7313 11.215500  7.386950 28.258000
166  2 -0.6931 13.183600 10.908800 28.319200
167  2 -0.7999 11.822500  0.356409 28.073700
168  2 -0.7652 13.205800  3.667580 28.441300
169  2 -0.3336  1.545600 15.543100 24.764200
170  2 -0.4410  3.473760 19.303100 25.015000
171  2 -0.3684  0.928728  8.970320 24.999600
172  2 -0.3470  3.459740 11.775100 24.515200
173  2 -0.4166  5.833280 16.293400 24.871200
174  2 -0.3423  7.215450 19.722200 25.075600
175  2 -0.5544  2.618000  0.385552 27.388300
176  2 -0.4019  3.188960  5.448690 24.638100
177  2 -0.5330  5.290150  8.612500 24.883300
178  2 -0.3993  7.802320 12.200500 24.672900
179  2 -0.3924  9.349350 16.252300 25.041900
180  2 -0.3610 12.303300 19.156700 25.205800
181  2 -0.4843  5.478010  2.494180 26.560000
182  2 -0.6214  7.010300  5.735540 24.618100
183  2 -0.3019  9.482980  8.088240 24.528500
184  2 -0.3085 11.247600 11.969700 24.806300
185  2 -0.3371 14.175000 15.932500 24.784200
186  2 -0.3791 15.763200 19.049000 24.934900
187  2 -0.3486  9.896990  0.761195 25.024600
188  2 -0.5224 11.122900  4.797730 25.127000
189  2 -0.2656 14.172400  8.788910 24.789400
190  2 -0.3867 15.614700 12.214100 24.835800
191  2 -0.3586 13.139700  1.581220 24.678100
192  2 -0.4544 15.716500  5.317570 24.609700
193  2 -0.3222 15.125400 14.917400 21.946300
194  2 -0.2744  1.575340 17.645400 22.430100
195  2 -0.3563 15.632900  7.530660 21.909800
196  2 -0.3981  1.589240 11.861900 22.046400
197  2 -0.3857  3.801710 15.459600 21.953500
198  2 -0.3308  5.747280 18.598200 22.710000
199  2 -0.4580 15.591000 21.596600 22.857800
200  2 -0.4592  0.861011  4.122940 22.572200
201  2 -0.3513  2.733610  7.471420 22.209500
202  2 -0.3754  5.423040 11.338100 22.150800
203  2 -0.3481  7.542240 14.378500 21.733300
204  2 -0.3127  9.854020 18.615000 22.878100
205  2 -0.6214  3.165940  0.319343 23.086600
206  2 -0.5977  5.081690  3.922520 22.158500
207  2 -0.4010  7.658670  8.335110 21.767800
208  2 -0.2090  9.781620 11.426000 22.035700
209  2 -0.4255 11.530900 15.083400 22.178800
210  2 -0.4147 13.743900 18.791500 21.842300
211  2 -0.5388  7.528440  0.977383 22.249000
212  2 -0.4256  9.754640  5.235770 22.223700
213  2 -0.2889 11.713500  8.134300 22.328600
214  2 -0.3483 13.591800 10.965400 22.268000
215  2 -0.4745 11.817200  0.221330 22.098700
216  2 -0.4946 13.133700  4.521420 22.108600
217  2 -0.6622  1.515940 13.477700  9.715930
218  2 -0.5634  3.706150 16.490400  8.761130
219  2 -0.8043  1.803020  6.545560  8.575720
220  2 -0.8132  3.220610 10.441600  9.713620
221  2 -0.4777  4.841780 13.648800 10.506600
222  2 -0.5748  6.506670 19.917000  6.783680
223  2 -0.6893  1.562730 20.366900  8.414870
224  2 -0.7471  3.806730  1.935200  8.882870
225  2 -0.7331  5.607590  6.202710  9.534160
226  2 -0.7033  7.219340  9.745400  9.170210
227  2 -0.3962 10.451800 13.445000  9.555350
228  2 -0.6216 11.577800 16.587100  9.678270
229  2 -0.5817  4.193300 19.751100 10.698200
230  2 -0.4388  7.777530  3.297200  9.701660
231  2 -0.6526  9.466640  6.887650  9.044540
232  2 -0.7548 11.614300  9.722630  8.685200
233  2 -0.9312 14.165200 12.942300  9.183400
234  2 -0.7651 15.665000 17.808900  9.275220
235  2 -0.5261 11.598000 19.545500 11.873000
236  2 -0.6567 10.904400  3.353430  8.715990
237  2 -0.7089 13.365700  6.073820  8.120780
238  2 -0.8511 15.314100  9.458620  8.991650
239  2 -0.6766 13.105600  0.910195 10.869200
240  2 -0.7365 15.946400  2.241950  8.900460
241  2 -0.4697 15.592000 14.753100  6.239990
242  2 -0.4512  1.050840 18.354400  5.270350
243  2 -0.3490 14.938200  6.874940  5.313020
244  2 -0.4699  1.473000 10.634500  6.037410
245  2 -0.3403  3.925370 14.685800  6.192970
246  2 -0.4623  6.882700 15.843900  7.539490
247  2 -0.3642 15.299200 21.631700  5.783850
248  2 -0.4443  0.892397  3.441360  5.434370
249  2 -0.4217  3.307840  7.614720  4.696550
250  2 -0.3058  5.673720 11.570100  5.852450
251  2 -0.0403  9.534220 14.392700  6.673740
252  2 -0.1640  9.932210 17.309500  6.043540
253  2 -0.4394  3.701770  0.135543  5.214080
254  2 -0.5403  6.399370  2.316820  6.428220
255  2 -0.4080  6.913950  7.567880  5.862700
256  2 -0.3527  9.150720 11.580300  6.975790
257  2 -0.0827 11.402000 14.611400  5.795850
258  2 -0.2177 13.239500 17.829400  6.228820
259  2 -0.6334  9.409790 20.949100  8.422040
260  2 -0.5259  9.295400  4.159280  5.292290
261  2 -0.4196 11.617900  7.143470  5.290140
262  2 -0.5669 14.723300 11.122300  5.847630
263  2 -0.3869 11.866400 20.706800  6.127820
264  2 -0.2159 14.385700  3.162290  5.632220
265  2 -0.5081  1.255520 12.733900  3.390440
266  2 -0.4163  3.011820 16.525400  4.075970
267  2 -0.4659  0.220281  6.171990  3.117830
268  2 -0.4275  3.525170  9.794150  3.098950
269  2 -0.3947  5.586480 14.037300  2.998760
270  2 -0.4555  7.097810 16.622200  3.173660
271  2 -0.3404  0.953912 21.455600  3.184590
272  2 -0.4853  3.646550  3.746520  3.250600
273  2 -0.3447  5.635880  6.766340  2.715300
274  2 -0.3823  8.021460 10.349700  3.224230
275  2 -0.3623  9.626750 13.564400  3.205990
276  2 -0.2821 11.769500 17.175800  3.319050
277  2 -0.6535  5.146430 19.295400  3.781850
278  2 -0.5125  7.034700  2.811610  2.848530
279  2 -0.4018  9.467860  6.631310  3.043570
280  2 -0.4113 10.918600 10.723500  4.458200
281  2 -0.4725 13.559900 13.150500  3.565740
282  2 -0.4033 15.660500 16.249600  3.378620
283  2 -0.6067  8.894380 20.978700  4.332780
284  2 -0.3344 12.455900  2.912260  3.623880
285  2 -0.3081 12.750200  5.793240  2.787340
286  2 -0.4894 15.159500  9.305640  2.643730
287  2 -0.4133 13.970000 20.234200  3.173980
288  2 -0.3292 15.877500  2.596140  3.155890
289  2 -0.7652  1.569200 16.092900 19.134400
290  2 -0.6378  2.746860 20.348300 19.110900
291  2 -0.7723  0.863035  8.327510 19.261200
292  2 -0.9527  3.655290 11.578500 18.740900
293  2 -0.7177  6.425780 16.334100 19.078400
294  2 -0.7226  7.474470 20.338400 19.532900
295  2 -0.4424  0.202411  1.371330 18.635600
296  2 -0.6747  2.179520  3.952690 18.510700
297  2 -0.6233  5.624030  8.676230 17.985000
298  2 -0.6954  7.912210 13.302300 18.307800
299  2 -0.8189  9.676530 16.720600 19.033700
300  2 -0.7518 12.158100 19.348000 18.201400
301  2 -0.5764  5.814710  1.783630 18.764700
302  2 -0.6771  6.910500  5.102350 18.581700
303  2 -0.8116  9.094400  9.098060 18.488000
304  2 -0.9133 11.410500 12.092900 19.037200
305  2 -0.8980 13.531100 14.892700 18.536600
306  2 -0.5941 16.271800 19.683300 19.487900
307  2 -0.6703  9.396190  1.875170 19.381000
308  2 -0.7643 11.138700  5.701410 18.769900
309  2 -0.8911 13.680500  9.043010 18.614000
310  2 -0.7803 16.166900 12.238200 18.985800
311  2 -0.6746 13.723300  1.641380 19.265800
312  2 -0.7957 15.050400  5.805910 18.396700
313  2 -0.5291  0.785815 12.948600 15.176100
314  2 -0.5678  3.961580 15.705700 15.933800
315  2 -0.3728  1.438900  5.790280 14.688200
316  2 -0.4408  2.759700  9.624910 14.859000
317  2 -0.3160  5.750690 13.653100 14.419300
318  2 -0.7098  7.407600 18.268400 16.290400
319  2 -0.3766  0.597584 21.504200 13.274400
320  2 -0.3254  1.604840  0.730489 15.736100
321  2 -0.3033  4.542940  5.214000 14.733800
322  2 -0.3891  7.685980 10.154700 14.760600
323  2 -0.5358  9.219940 13.207800 14.424800
324  2 -0.6486 11.286100 16.726300 15.281800
325  2 -0.4516  4.387740 21.056100 16.332500
326  2 -0.3839  6.828020  3.093120 15.391400
327  2 -0.4987 10.320900  5.357770 15.078600
328  2 -0.3694 11.307700 10.097200 14.889600
329  2 -0.4346 13.497500 13.155200 15.393000
330  2 -0.8052 16.468700 16.672100 16.880500
331  2 -0.3258 10.003600 21.380600 15.441300
332  2 -0.4593 11.242200  2.338950 16.384100
333  2 -0.3508 13.832500  6.620730 15.254200
334  2 -0.3018 14.859100  9.915630 15.528600
335  2 -0.4057 14.517700 18.730200 15.216600
336  2 -0.5886 14.736800  3.256700 14.753400
337  2 -0.6842  0.699220 16.389300 11.870900
338  2 -0.5455  1.914070 18.303000 14.368700
339  2 -0.3253  0.357374  9.264820 12.736200
340  2 -0.3259  3.342290 11.905500 13.225700
341  2 -0.5694  5.559600 17.116900 13.394600
342  2 -0.4687  7.699240 20.688400 14.071100
343  2 -0.3187  2.611200  2.494150 13.562700
344  2 -0.4285  2.518040  5.570930 11.421100
345  2 -0.4125  5.255380  8.528950 13.023000
346  2 -0.4867  7.798370 12.711200 11.311300
347  2 -0.5248  8.457450 15.603300 10.173700
348  2 -0.6451  7.720790 19.429400 10.865300
349  2 -0.4084  5.812200  1.212450 11.633200
350  2 -0.4030  7.174160  4.860620 12.517100
351  2 -0.4747  9.418000  9.010040 12.150700
352  2 -0.3443 11.720500 12.331300 12.331100
353  2 -0.6822 13.909100 15.827000 13.280400
354  2 -0.3039 16.380400 19.499800 11.743700
355  2 -0.3512  9.477430  1.846890 12.960800
356  2 -0.5892 12.191600  4.524360 12.137200
357  2 -0.2878 13.846200  8.623970 12.653400
358  2 -0.3210 15.178000 12.310400 13.034500
359  2 -0.3749 13.478800 21.297100 14.187500
360  2 -0.5068 15.707600  4.392810 11.763400

