Generated by pymatgen.io.lammps.data.LammpsData

216  atoms

  2  atom types

0.000000 18.096178  xlo xhi
0.000000 18.140645  ylo yhi
0.000000 18.233787  zlo zhi

Masses

1  208.9804
2   78.9600

Atoms

1    1  0.7993  0.427468 18.124300  0.180819
2    1  0.8383  0.095859 -0.051610  6.647360
3    1  0.8265 -0.201428 -0.512902 12.609500
4    1  0.7929  0.127661  5.356840 17.965100
5    1  0.6689  0.423587  5.310470  6.134590
6    1  0.7050 18.028200  6.280420 12.553000
7    1  0.7962  0.312876 11.792400  0.128807
8    1  0.7680  0.423995 11.887500  6.050020
9    1  0.7524 18.347800 11.860200 11.803000
10   1  0.6866  6.815830 17.652200  0.070957
11   1  0.7626  6.246210 17.824900  6.296870
12   1  0.7843  6.052500 -0.529768 12.506100
13   1  0.8115  6.059180  5.708380  0.170557
14   1  0.8503  6.008990  6.076720  5.583050
15   1  0.7488  6.373510  5.572470 12.190300
16   1  0.8666  5.862860 12.142200 -0.148258
17   1  0.7325  6.749280 11.740100  6.501390
18   1  0.8555  5.939490 12.126300 12.852900
19   1  0.7780 12.403000 18.140500  0.543997
20   1  0.8389 12.805600 18.187400  5.997560
21   1  0.6665 12.547800 17.980700 12.506200
22   1  0.6290 11.922700  5.738630 17.928900
23   1  0.7804 12.430400  6.027770  6.287300
24   1  0.7925 12.171900  6.030850 11.935600
25   1  0.6863 12.040500 11.845700 18.027800
26   1  0.9158 12.103200 12.203300  5.847860
27   1  0.7943 12.481100 11.586100 11.838600
28   1  0.6696 18.108800  2.337670  3.491360
29   1  0.8188 18.044900  3.104550  9.143440
30   1  0.7040 18.065500  2.713720 15.597700
31   1  0.7604  0.101580  8.750920  4.135530
32   1  0.8578  0.706047  9.155540  9.470250
33   1  0.8393 -0.475867  9.417980 15.357600
34   1  0.7274  0.081980 14.475600  2.643910
35   1  0.7177 17.763500 14.715000  9.545670
36   1  0.8674 18.592900 14.501400 15.120700
37   1  0.7600  5.818550  2.624310  3.370370
38   1  0.8162  5.438700  2.278980  9.524440
39   1  0.8661  6.192700  2.820680 15.415400
40   1  0.8497  5.891680  8.802140  2.864630
41   1  0.6272  6.794860  8.331990 10.160500
42   1  0.7558  6.204690  8.681500 15.983100
43   1  0.8040  6.058110 15.154600  3.108880
44   1  0.7676  6.130280 15.413900  9.321590
45   1  0.7780  5.630880 15.366700 15.599700
46   1  0.7630 12.255100  3.361210  2.314110
47   1  0.7360 11.779500  3.151580  8.446070
48   1  0.6881 12.895400  2.958680 15.203400
49   1  0.8799 12.509700  9.089480  3.066800
50   1  0.8631 12.076300  9.073450  8.923660
51   1  0.6996 12.400700  7.931400 15.744600
52   1  0.7269 12.610200 14.614300  2.402420
53   1  0.7718 12.074500 15.149500  9.319350
54   1  0.7848 12.258500 14.530200 14.947000
55   1  0.7159  3.016600  0.183183  3.599170
56   1  0.7350  3.408080 18.249900  9.242840
57   1  0.8639  3.051730  0.503795 15.614600
58   1  0.6666  2.709640  6.540690  3.029110
59   1  0.8535  2.831750  5.988170  9.179210
60   1  0.6504  3.345700  5.572990 14.673400
61   1  0.8164  3.054000 11.925000  3.068060
62   1  0.8420  3.082800 12.288900  9.228130
63   1  0.9219  3.286530 12.536300 15.653700
64   1  0.7188  9.527780 17.573900  3.333400
65   1  0.7835  9.260350 17.853600  9.282220
66   1  0.8073  9.761010 18.181200 14.806100
67   1  0.7970  9.364390  5.744820  3.523840
68   1  0.7956  8.634570  5.644370  8.833010
69   1  0.6687  9.395320  5.349310 14.653800
70   1  0.8016  8.919130 11.986000  3.527110
71   1  0.7555  9.837530 12.179900  9.451010
72   1  0.7386  8.964030 11.807200 15.233000
73   1  0.8094 15.767700 18.078200  3.093050
74   1  0.6939 14.549100 17.194000  9.727580
75   1  0.7554 15.337500 -0.456949 15.178500
76   1  0.8347 15.190000  5.816470  3.810780
77   1  0.7832 15.295500  6.218070  9.450610
78   1  0.8209 15.240800  5.953370 15.058000
79   1  0.8604 15.274700 12.134300  3.616810
80   1  0.8635 15.872200 11.914100  8.861050
81   1  0.6422 14.882200 12.098600 14.965700
82   1  0.8148  3.113850  2.744470 18.899400
83   1  0.8323  2.695520  2.766510  6.153550
84   1  0.7823  3.536650  2.964660 12.588200
85   1  0.8235  2.975180  8.931230  0.256557
86   1  0.8010  2.945410  9.127810  6.034280
87   1  0.7587  3.858340  8.366040 12.735300
88   1  0.7432  3.089430 15.233600 18.210400
89   1  0.8292  3.162940 15.536900  6.919270
90   1  0.7633  3.119730 14.687600 12.306000
91   1  0.7052  9.410600  2.717720 18.135800
92   1  0.8144  8.935250  1.930960  6.421050
93   1  0.7427  9.776380  3.062120 11.645100
94   1  0.7436  9.132590  9.056360 -0.111012
95   1  0.6447  8.250220  8.259360  6.650900
96   1  0.7934  9.632500  8.683230 12.357700
97   1  0.6553  9.263040 15.077200 17.972800
98   1  0.7906  9.324590 14.996900  6.675390
99   1  0.8816  8.700790 15.173000 11.968300
100  1  0.8013 15.364000  2.600650  0.118276
101  1  0.7668 15.451700  3.007730  6.120640
102  1  0.7608 15.172900  3.817930 11.978600
103  1  0.8374 15.031000  9.239900  0.057470
104  1  0.7333 15.210400  9.007960  5.938360
105  1  0.7792 15.297700  9.167750 11.856400
106  1  0.7596 15.384700 14.656900 18.201500
107  1  0.8592 15.182300 15.354800  6.181740
108  1  0.6024 15.438000 14.653600 12.229100
109  2 -0.8303  3.183480 18.264100 -0.109560
110  2 -0.8646  3.451470 18.351900  6.401370
111  2 -0.6736  2.695180 18.470500 12.344400
112  2 -0.7339  2.935920  5.708590 18.112700
113  2 -0.7651  3.408950  5.664250  6.031820
114  2 -0.8611  3.081300  6.123310 11.790800
115  2 -0.8220  3.327640 11.797100 18.515500
116  2 -0.6582  3.131030 12.391800  6.509640
117  2 -0.6865  3.343340 12.035200 12.775500
118  2 -0.8105  9.709530 18.362200 17.747700
119  2 -0.8139  9.790240 17.701800  5.894470
120  2 -0.7760  8.465090 -0.216389 11.763900
121  2 -0.7128  9.145820  6.126540  0.573774
122  2 -0.7830  8.322460  5.317510  6.243180
123  2 -0.8624  9.059690  5.934160 11.486500
124  2 -0.7434  8.855550 12.050100  0.139665
125  2 -0.7706  9.439660 11.532100  6.246620
126  2 -0.6843  9.302450 12.180500 12.063700
127  2 -0.7624 15.611500 17.809500 18.407900
128  2 -0.7967 15.472600 18.178300  5.972370
129  2 -0.7516 15.423800  0.718801 12.530900
130  2 -0.5500 15.007200  6.045260 18.442600
131  2 -0.8519 15.070000  5.696560  6.521500
132  2 -0.9035 15.135400  6.473350 12.418200
133  2 -0.7886 15.353300 11.989400  1.013630
134  2 -0.7834 15.680300 12.105600  6.189230
135  2 -0.8937 15.063000 11.778100 11.385000
136  2 -0.8850  3.103510  2.989710  3.346930
137  2 -0.7158  2.716290  3.289350  9.389490
138  2 -0.8740  3.131920  3.057550 15.284700
139  2 -0.8781  2.926070  9.404180  3.117870
140  2 -0.6569  3.309350  9.508000  8.886170
141  2 -0.5367  3.086140  9.699870 15.088900
142  2 -0.6828  3.528960 14.966000  3.679870
143  2 -0.8281  2.962580 15.308000  9.393220
144  2 -0.8886  3.007460 15.055800 15.601500
145  2 -0.6652  9.272510  2.770060  3.803500
146  2 -0.7434  8.747410  2.655390  9.103490
147  2 -0.7700  8.928120  2.480790 14.987200
148  2 -0.6433  8.522870  8.965290  2.929380
149  2 -0.8583  9.251150  8.738190  9.087930
150  2 -0.7442  9.399090  8.864520 15.025200
151  2 -0.7296  9.222170 14.890900  3.823920
152  2 -0.9283  9.253210 14.977000  9.552370
153  2 -0.6766  9.301930 14.871700 14.552000
154  2 -0.7996 15.340700  3.106200  2.814650
155  2 -0.6281 15.007400  2.953250  9.150150
156  2 -0.8834 15.589400  3.582460 15.816100
157  2 -0.7117 14.939700  8.705500  2.750720
158  2 -0.7094 14.931400  8.981260  8.943950
159  2 -0.8164 14.969700  9.255090 15.334600
160  2 -0.7765 15.543100 14.591100  3.649040
161  2 -0.8606 14.856700 14.801500  9.051550
162  2 -0.8333 15.455400 14.921200 15.359900
163  2 -0.8136  0.258055 17.570500  3.392190
164  2 -0.6432  0.196486 -0.471989  9.524020
165  2 -0.7327  0.123511 17.452100 15.298200
166  2 -0.7997 -0.339783  6.290080  3.553880
167  2 -0.7904  0.235453  6.286690  9.267320
168  2 -0.7341 17.877000  6.564940 15.532100
169  2 -0.8026  0.019621 11.303900  3.113090
170  2 -0.9383  0.246026 11.591400  9.266630
171  2 -0.7705  0.681782 11.822600 15.515600
172  2 -0.8175  6.433440 -0.241614  2.990640
173  2 -0.9005  6.275500 17.869400  9.095300
174  2 -0.7820  5.728740 18.174200 15.220100
175  2 -0.7570  6.288830  5.930180  3.093050
176  2 -0.6724  6.021260  5.183780  9.423780
177  2 -0.8049  6.553870  6.063530 15.056600
178  2 -0.6645  6.026700 11.806700  2.630070
179  2 -0.6581  5.874350 12.403500  9.354870
180  2 -0.8498  5.829220 12.212100 15.408000
181  2 -0.7400 13.165500 -0.653918  3.213130
182  2 -0.7929 12.276100  0.124430  8.942330
183  2 -0.7880 12.314600 17.300200 14.942800
184  2 -0.7709 12.202600  5.822900  3.391100
185  2 -0.7891 12.302800  6.552380  8.912880
186  2 -0.9311 12.386200  5.288170 14.629200
187  2 -0.7989 12.147100 11.773100  3.138230
188  2 -0.6969 12.370400 12.026900  8.197750
189  2 -0.7289 12.320700 11.449700 15.087600
190  2 -0.8828  0.475890  2.401890  0.228734
191  2 -1.0051  0.175390  2.457180  6.347500
192  2 -0.6373  0.201772  3.241840 11.895400
193  2 -0.6022  0.143055  8.774780 -0.134362
194  2 -0.8334  0.331238  8.921080  6.731920
195  2 -0.7206  0.798963  9.395250 12.519000
196  2 -0.8205  0.292336 14.522500 18.193800
197  2 -0.6652  0.227133 15.180400  6.568020
198  2 -0.9120  0.261054 14.846100 12.385000
199  2 -0.7537  6.307110  3.093400 17.993000
200  2 -0.6109  5.806760  2.630130  6.475400
201  2 -0.7498  6.136390  2.822490 12.369400
202  2 -0.8359  5.678110  8.549130 18.549700
203  2 -0.7888  5.462830  8.934620  6.047460
204  2 -0.7618  6.600680  8.881080 12.999300
205  2 -0.8675  6.236550 14.802400 18.503700
206  2 -0.7519  6.267060 15.091100  6.583980
207  2 -0.8492  6.065420 14.871400 12.874700
208  2 -0.9287 12.464100  2.439730 18.262800
209  2 -0.7114 12.153200  2.934170  5.793930
210  2 -0.7681 12.483300  3.104650 11.509000
211  2 -0.7878 12.163700  8.785860  0.336465
212  2 -0.7143 12.348200  9.175000  5.845490
213  2 -0.7503 12.366900  8.958180 12.103700
214  2 -0.8222 12.244500 14.746900 17.989300
215  2 -0.6930 12.158200 14.898400  6.214460
216  2 -0.7925 12.285800 14.877100 11.970000

