Generated by pymatgen.io.lammps.data.LammpsData

320  atoms

  2  atom types

0.000000 24.637781  xlo xhi
0.000000 17.058433  ylo yhi
0.000000 27.370788  zlo zhi

Masses

1  208.9804
2   78.9600

Atoms

1    1  0.7425 -2.109290 18.452600  1.692640
2    1  0.6967 -2.469550  1.929960 14.495500
3    1  0.6920 -1.516350  9.633430  0.505209
4    1  0.7330 -2.055570  9.656370 14.065700
5    1  0.7670 10.867600  1.808460  0.088725
6    1  0.7054  9.425750 17.673500 14.432100
7    1  0.6448 11.579700 10.263900  0.604360
8    1  0.6084  9.429740  9.447040 14.317400
9    1  0.7874  3.596690  5.954590  9.872430
10   1  0.7863  4.657690  5.319140 23.647000
11   1  0.7680  3.622570 14.499900 11.197000
12   1  0.8011  5.363890 14.020900 22.667700
13   1  0.8223 16.465200  5.617300  9.774570
14   1  0.7253 17.254500  5.351470 23.540100
15   1  0.7630 15.617900 14.136300 10.714300
16   1  0.8602 17.853600 13.953200 23.251400
17   1  0.7804  3.495850  6.182850  4.326700
18   1  0.6427  4.877780  5.522610 19.192000
19   1  0.5673  4.461010 15.386500  3.217230
20   1  0.6822  4.720960 14.238300 18.143500
21   1  0.7320 16.164300  5.733000  5.768760
22   1  0.8435 17.656300  5.286640 19.416700
23   1  0.7920 16.181700 14.513800  5.812600
24   1  0.6828 18.523100 13.916600 18.367600
25   1  0.7539 -2.452980  1.700300  9.641310
26   1  0.6997 -1.677070  1.277050 24.097500
27   1  0.7808 -2.261930  9.716760 10.038000
28   1  0.7021 -1.370400  9.976510 24.141600
29   1  0.7023  9.787280 18.219800  9.769320
30   1  0.6290 11.326900  2.147540 22.846500
31   1  0.7655  9.836970  9.743780  9.148460
32   1  0.6339 10.790400  9.520610 24.037800
33   1  0.7026  0.253936  6.004060  1.474640
34   1  0.6745 21.668400  5.535530 13.983100
35   1  0.7436 -1.300050 14.652300  0.639617
36   1  0.5439 22.146800 14.595600 14.488900
37   1  0.6774 10.541700  5.815190  0.765669
38   1  0.6568  9.055910  5.822290 14.128300
39   1  0.7055 11.469300 14.058600 26.911700
40   1  0.6842  9.630750 13.830700 13.669900
41   1  0.7737 -2.194000  5.723620  9.296750
42   1  0.6764 -0.589323  5.310200 23.696300
43   1  0.6449 22.309900 14.305000  9.709510
44   1  0.7206 -1.344750 14.307000 23.653400
45   1  0.6624  9.504820  5.351010  9.783220
46   1  0.6702 11.758900  5.758510 23.251500
47   1  0.8032  9.430280 13.963400  9.825330
48   1  0.6109 11.270600 13.705000 22.298800
49   1  0.6520  3.845730 18.194700  5.653630
50   1  0.7275  4.523860  1.691210 19.049200
51   1  0.6392  3.562250 10.286600  5.754140
52   1  0.7809  4.925740  9.509560 19.096100
53   1  0.7636 16.156100  1.735810  5.838260
54   1  0.6792 17.170100  1.244500 19.668400
55   1  0.5310 16.119100 10.198500  6.026230
56   1  0.6849 17.730700  9.588410 19.487600
57   1  0.7742  3.900830 18.519000 10.082200
58   1  0.8478  4.745500 18.120500 23.417400
59   1  0.7760  3.891910 10.100100  9.740140
60   1  0.8364  5.049680  9.917980 23.103900
61   1  0.7782 16.431200  1.314290 10.620600
62   1  0.7039 16.735500 18.558900 23.379500
63   1  0.6766 15.798800  9.384140  9.721290
64   1  0.8273 17.321400  9.725600 23.368600
65   1  0.7272  1.953690  8.116890 25.680800
66   1  0.6468 -0.056988  7.759450 11.912000
67   1  0.7032  2.279390 15.972100 25.524500
68   1  0.7040  0.251212 16.877400 12.861500
69   1  0.7736 14.351600  8.081160 25.618000
70   1  0.7239 11.938500  7.569320 11.514700
71   1  0.8299 14.531400 16.602300 25.786600
72   1  0.7194 12.732800 16.506300 11.735200
73   1  0.7400  7.777620  7.911830 26.196900
74   1  0.7223  6.666970  8.044770 12.137000
75   1  0.7709  8.531550 16.264200 25.199900
76   1  0.7093  6.681900 16.227800 11.889100
77   1  0.6667 20.575900  6.252870 26.910200
78   1  0.7497 19.126600  8.051180 12.234000
79   1  0.7957 20.295300 16.229000 25.933600
80   1  0.6795 19.590100 15.978100 12.023400
81   1  0.6859  1.808610  3.046680 25.619800
82   1  0.7897  0.872923  4.208110 12.081600
83   1  0.8345  1.594200 12.406300 25.652700
84   1  0.8369  0.925962 12.190300 12.017400
85   1  0.7017 13.900500  4.351580 25.944300
86   1  0.6572 11.879000  3.628480 11.991700
87   1  0.8409 15.020000 11.915600 25.409200
88   1  0.8453 12.633000 12.094200 11.975400
89   1  0.8304  7.916590  3.294510 25.412400
90   1  0.8077  6.706300  4.347250 12.169900
91   1  0.7547  8.711490 12.147000 24.878700
92   1  0.6974  6.989130 11.604300 12.185700
93   1  0.6615 20.008700  3.069510 25.763300
94   1  0.8130 19.334200  3.584980 11.772200
95   1  0.8135 20.537500 12.057100 25.793500
96   1  0.7188 18.717400 12.187200 12.168500
97   1  0.7520  0.758556  7.915060  7.906060
98   1  0.6964  2.114100  7.797630 21.147200
99   1  0.6905  0.721570 16.572800  7.749220
100  1  0.8455  1.651940 16.323500 21.468700
101  1  0.6564 13.096500  8.190810  7.190630
102  1  0.6311 14.626500  7.671220 21.079800
103  1  0.8053 12.958900 16.650100  7.508660
104  1  0.6840 14.774500 16.254600 20.636600
105  1  0.7253  6.551820  7.374100  8.331120
106  1  0.7519  7.606620  7.385890 21.296800
107  1  0.7283  6.589530 16.438900  7.952640
108  1  0.7093  7.947340 16.284000 21.129700
109  1  0.7836 18.674900  8.006300  7.956160
110  1  0.8461 20.707300  7.513410 22.246200
111  1  0.7268 18.892600 16.026600  8.124160
112  1  0.8053 20.223400 16.352300 21.263000
113  1  0.7715  0.845251  3.637200  7.698700
114  1  0.6393  1.760520  3.713540 21.257500
115  1  0.7889  1.096810 12.361200  7.745570
116  1  0.8569  1.835330 12.369000 20.997200
117  1  0.8108 13.149800  3.555570  7.821250
118  1  0.6201 14.444400  3.591380 20.861100
119  1  0.6931 13.032100 12.158200  7.756250
120  1  0.6633 14.670400 11.597900 21.330300
121  1  0.7737  6.919490  3.641190  7.745340
122  1  0.7571  7.308160  3.713880 21.502200
123  1  0.7484  6.582980 12.309100  7.810760
124  1  0.7059  8.028300 12.060900 20.911700
125  1  0.7771 18.966500  3.690370  7.817320
126  1  0.8159 20.336700  3.028940 21.719800
127  1  0.8341 19.016100 12.240500  8.038000
128  1  0.7751 20.693400 12.043600 21.506900
129  2 -0.8942  6.275940  5.423600 10.069300
130  2 -0.7439  7.393560  5.520380 23.680400
131  2 -0.7947  6.845380 13.801400 10.210300
132  2 -0.8678  8.255870 13.998600 22.828600
133  2 -0.7853 19.270100  5.956740  9.727070
134  2 -0.7629 20.314400  5.168960 23.823000
135  2 -0.8567 18.905400 14.011400 10.044400
136  2 -0.8322 20.562500 13.955700 23.486200
137  2 -0.8849  0.679153  5.814870  9.670910
138  2 -0.8584  2.024900  5.707330 23.661400
139  2 -0.7296  0.799470 14.198900 10.366700
140  2 -0.7333  1.905790 13.928300 23.449400
141  2 -0.7010 12.490900  5.470270  9.792500
142  2 -0.8519 14.632300  5.952830 23.598800
143  2 -0.7388 12.912600 14.026300  9.725860
144  2 -0.6077 14.941200 13.973700 23.158100
145  2 -0.1473 15.592300  4.042160  2.669300
146  2 -0.1164 22.373000  4.018230 17.373600
147  2 -0.2405 16.940300 11.878700  3.775480
148  2 -0.2589 -1.878260 12.188800 16.402700
149  2 -0.1006  9.891050  4.285330  3.871030
150  2 -0.0330 14.539400  6.042330 15.232100
151  2 -0.0999  5.520460 11.514000  2.625390
152  2 -0.1249 11.334300 13.581100 18.459300
153  2 -0.0008 22.176900 11.051400  4.158130
154  2 -0.0924 21.534500  8.020370 17.212100
155  2 -0.3971 20.396200 14.016200  0.530768
156  2 -0.3047  3.100150 16.122900 17.156800
157  2 -0.0340  9.608350  8.028490  4.418450
158  2 -0.2604 18.522200  7.653480 17.393500
159  2 -0.0628 12.866700 16.250800  2.638290
160  2 -0.0783 10.240900  2.789990 17.241300
161  2 -0.7471  6.573300 18.550600  9.793390
162  2 -0.7197  7.663270 18.423900 23.399900
163  2 -0.7884  6.831850  9.864000  9.647860
164  2 -0.7292  7.883480  9.833460 23.153700
165  2 -0.7965 19.303900  1.272700 10.344000
166  2 -0.8052 19.940400 18.079100 23.916200
167  2 -0.7553 19.289000 10.058700  9.932840
168  2 -0.6761 20.197900  9.938580 24.129800
169  2 -0.6976  0.765523  2.097630 10.031200
170  2 -0.7784  1.734440 17.976900 23.579400
171  2 -0.7180  0.591964 10.365800  9.404510
172  2 -0.6271  1.775340 10.487000 23.438900
173  2 -0.7662 13.507300  1.478870  9.594630
174  2 -0.7794 14.106200  1.112760 22.839600
175  2 -0.7585 12.767400 10.091700  9.655850
176  2 -0.8501 14.610800  9.815840 23.457400
177  2 -0.0452  9.261810  2.129570  3.292190
178  2 -0.0792 -0.349664  4.582300 17.477700
179  2 -0.1401  5.499760 13.917300  0.772936
180  2 -0.2520 18.946700 16.784300 16.864900
181  2 -0.1039 19.298900  4.015340  2.375860
182  2 -0.0032 14.447400  3.946260 16.046900
183  2  0.0497 20.824800 12.350000  3.303150
184  2 -0.1611 11.998100 10.981000 18.616500
185  2 -0.2656 11.239000  9.503880  4.377150
186  2 -0.1395  3.452210  7.675270 16.398300
187  2 -0.0519  8.218740 16.687300  3.377960
188  2 -0.3152  3.999750  4.040280 17.156700
189  2 -0.2810 21.922900  6.929390  2.473710
190  2 -0.0702 10.730600  5.331390 17.296700
191  2 -0.1863 15.822900 17.084500  3.508970
192  2 -0.0300 13.461500 16.347000 16.802800
193  2 -0.2827  3.949030  3.408910  3.214310
194  2  0.0145  1.561210  7.614870 16.962600
195  2 -0.1459 -0.953417 13.761800  5.166820
196  2 -0.3529  1.072590 14.309200 19.462700
197  2 -0.4870 13.223100  5.599710  5.835230
198  2 -0.4835 14.871100  5.814890 18.911200
199  2 -0.1054 11.186200 14.867600  2.635720
200  2 -0.4383 15.379600 13.500200 19.126200
201  2 -0.3686  0.865698  4.798480  4.750830
202  2 -0.4497  7.690550  4.960520 19.168300
203  2 -0.2027  7.627760 13.983000  4.875260
204  2 -0.3954  8.389840 14.287200 18.484000
205  2 -0.4170 18.811900  6.137530  5.639330
206  2 -0.3705 20.462300  5.275280 20.047100
207  2 -0.3713 19.167700 14.178000  5.914160
208  2 -0.3633 21.474100 14.942500 19.250300
209  2 -0.8849 21.735200  7.314860 11.546900
210  2 -0.7920 -1.141070  7.607260 26.087100
211  2 -0.8567 -2.096650 16.992000 11.918500
212  2 -0.8880 -1.537190 16.445300 26.087500
213  2 -0.9653  9.175960  7.610850 11.975300
214  2 -0.8396 11.266400  7.773350 26.196300
215  2 -0.8715  9.539930 16.230200 11.716900
216  2 -0.7266 11.772600 16.760700 25.437500
217  2 -0.7852 22.280500  3.538200 11.838000
218  2 -0.6990 -1.283660  4.089170 26.702200
219  2 -0.7886 -1.935970 11.555600 11.927700
220  2 -0.8540 -1.337670 12.014200 26.111600
221  2 -0.8864  9.369420  3.426870 12.166600
222  2 -0.8609 10.834300  3.939460 25.310500
223  2 -0.7866  9.863380 11.497100 11.605200
224  2 -0.9184 11.328600 12.378000 24.739800
225  2 -0.5729  1.644620 14.124500  0.468937
226  2 -0.3156  0.625057  2.209720 14.854100
227  2 -0.4775  2.884650  7.157370  2.019270
228  2 -0.3574  0.799821  9.381680 14.056600
229  2 -0.4296 13.441200  1.917630  0.493394
230  2 -0.4066 12.330500  1.497370 14.210600
231  2 -0.4450 14.468500 10.122000  0.461525
232  2 -0.3918 12.418000  9.854460 13.740700
233  2 -0.5327  8.303980  1.124390 27.120800
234  2 -0.3114  6.331940  1.454370 14.284900
235  2 -0.3709  8.582220 10.151700 27.944800
236  2 -0.5469  6.802050  6.494910 14.678300
237  2 -0.3551 19.463300 17.900500  0.758794
238  2 -0.3820 19.380800 18.604500 13.985300
239  2 -0.2121 19.799400  9.947830  0.799976
240  2 -0.4605 19.866600  9.929720 14.497400
241  2 -0.7982  3.566620  7.629220  7.488230
242  2 -0.9369  4.701030  7.888090 21.117200
243  2 -0.8199  3.440080 16.405500  7.720480
244  2 -0.7948  4.651250 16.099400 21.095300
245  2 -0.9953 15.974300  7.627310  7.862920
246  2 -0.8152 17.781800  7.541080 21.598300
247  2 -0.7665 16.064100 16.380800  7.829680
248  2 -0.8401 17.537700 15.993100 21.268800
249  2 -0.6778  3.872680  3.968710  7.755150
250  2 -0.9381  4.504500  3.315120 21.402000
251  2 -0.8290  3.837400 12.241300  7.720310
252  2 -0.8008  4.704570 11.897700 21.003900
253  2 -0.8756 16.382000  3.666210  8.289690
254  2 -0.9586 17.146200  3.508680 21.257700
255  2 -0.8095 16.159900 12.840600  8.173350
256  2 -0.8430 17.757200 11.574200 21.566000
257  2 -0.4104  7.663620  5.416840  0.593516
258  2 -0.0824 11.879100  7.391340 17.411000
259  2 -0.3814  8.643630 13.768900 27.359000
260  2 -0.6057  7.315200 12.989500 14.594300
261  2 -0.0794 21.116600  3.967130  3.437090
262  2 -0.4101 18.961700  5.402600 14.031200
263  2 -0.2407 21.994200 15.920300  3.086900
264  2 -0.4179 18.613900 14.151400 14.330400
265  2 -0.3627  1.004490  2.604640  1.746740
266  2 -0.4367  0.280991  5.957010 14.184100
267  2 -0.4221  1.748760 10.513200  0.436032
268  2 -0.3843  1.891360 14.005600 13.897700
269  2 -0.3648 14.760900  6.243400  0.501777
270  2 -0.2789 17.758500  3.006100 17.611600
271  2 -0.4209 14.573200 13.982700 -0.000876
272  2 -0.5054 12.430200 14.454600 13.466000
273  2 -0.4963 -2.393410  3.608960  7.495250
274  2 -0.5061 -1.378850  2.905590 21.884900
275  2 -0.3512 22.346600 11.989800  7.913790
276  2 -0.4531 -1.045460 12.032200 21.444200
277  2 -0.4392  9.912670  3.152490  7.409380
278  2 -0.3835 10.599400  4.335730 20.868300
279  2 -0.4464  9.669770 12.176900  7.377280
280  2 -0.4975  7.657860  9.885950 18.866200
281  2 -0.3813 22.626300  8.173940  7.437190
282  2 -0.4986 -1.263510  7.912850 21.875900
283  2 -0.4047 -2.149810 15.986500  7.110510
284  2 -0.4765 -1.198040 16.451800 21.953500
285  2 -0.4956  9.713740  7.297380  7.641520
286  2 -0.4658 11.002400  8.150500 21.463600
287  2 -0.5788  9.212640 16.016700  8.297270
288  2 -0.3315 12.089800 17.387900 19.562000
289  2 -0.4517  6.854670 18.631200  5.839850
290  2 -0.4280  7.703730 18.050800 19.103600
291  2 -0.3249  6.280650  8.063670  5.063540
292  2 -0.0094  0.156070 12.497600 16.740500
293  2 -0.4749 19.006200  1.891920  5.967760
294  2 -0.4208 20.293400 18.434300 19.542400
295  2 -0.3961 19.098800 10.215300  6.184910
296  2 -0.3748 20.944800  9.855100 20.059500
297  2 -0.3974  0.858813 18.434900  5.029690
298  2 -0.2684  0.753340  1.216930 19.548100
299  2 -0.3868  0.332821 10.137800  5.565730
300  2 -0.4473  2.429410  9.794020 19.035300
301  2 -0.4465 13.484800  1.320060  5.533870
302  2 -0.0096 15.423400 16.518800 16.168700
303  2 -0.4126 13.113700 14.325200  5.647260
304  2 -0.1967 17.419200 11.529300 16.472600
305  2 -0.3594  3.828420  3.208680 12.338700
306  2 -0.5638  4.717870  2.968330 25.220000
307  2 -0.5428  3.624100 11.689400 11.954000
308  2 -0.4102  5.495320 12.125600 24.782400
309  2 -0.4197 16.413500  3.613070 12.016100
310  2 -0.4948 17.186300  3.162280 25.952500
311  2 -0.3941 15.496900 11.527200 12.445600
312  2 -0.5327 17.465400 11.860900 25.190900
313  2 -0.5752  3.798020  8.181290 11.533900
314  2 -0.5239  4.851020  8.064080 25.226800
315  2 -0.5315  3.755800 16.837600 12.296000
316  2 -0.5610  5.444080 16.121700 24.666900
317  2 -0.4556 15.225500  7.561480 11.564900
318  2 -0.3016 17.720500  7.970320 26.335200
319  2 -0.4063 15.736400 15.997600 12.601600
320  2 -0.4609 17.556600 16.064800 25.224400

