Generated by pymatgen.io.lammps.data.LammpsData

320  atoms

  2  atom types

0.000000 24.637781  xlo xhi
0.000000 17.058433  ylo yhi
0.000000 27.370788  zlo zhi

Masses

1  208.9804
2   78.9600

Atoms

1    1  0.7446 18.726100  8.534420 11.383000
2    1  0.7831 21.424700 15.127800 21.396300
3    1  0.5958  0.417992 13.050300  4.907870
4    1  0.5894  1.789170  5.800710 14.901700
5    1  0.5679  7.612360  8.833510  7.867940
6    1  0.7068 16.410100  2.334660 12.274100
7    1  0.6742  2.874830 17.163200 25.986800
8    1  0.7839  2.676130  7.925200 10.385700
9    1  0.4979  6.257780 16.258000 14.415100
10   1  0.5574 17.869300 16.265700 22.436300
11   1  0.7243  3.486680 10.670800 18.714400
12   1  0.6236  2.385690  3.865980 21.571500
13   1  0.6273 10.475300 16.221400 18.834100
14   1  0.5693 10.558500  7.116040 24.228200
15   1  0.5528 14.555800 11.935700 14.153000
16   1  0.5419 18.874400 15.928200 25.815200
17   1  0.7242  4.482130 15.644900 23.045200
18   1  0.6675  8.238030  5.378310 15.104200
19   1  0.5284 -1.690800  1.663270 26.938600
20   1  0.6156 -0.125447  4.683430 25.114100
21   1  0.4882 17.808500  4.264210 18.729100
22   1  0.6440 17.453400  5.529190 10.315900
23   1  0.5450 -2.106470  4.741220  1.805570
24   1  0.6691 13.905500 17.010000 24.688300
25   1  0.8427 17.032700  8.060010 14.892700
26   1  0.7072 19.666200  2.102310 24.477800
27   1  0.6073  5.192360 15.531900 10.009400
28   1  0.7253 -0.254527  7.440670  0.313428
29   1  0.5415 19.877700 16.524200 11.251800
30   1  0.8451  9.221830 11.863800 12.770100
31   1  0.6942 20.435600 18.192000 18.422000
32   1  0.7496 15.888000 12.159600 20.170300
33   1  0.5300 -0.370415 17.095400  2.530080
34   1  0.8177 15.597800  4.153940 24.591300
35   1  0.2130  6.554010  8.550460  3.666620
36   1  0.7027  2.645280  9.468210 13.964000
37   1  0.6010  8.874320 16.084000 13.934800
38   1  0.7154  6.689520 12.378800 15.669600
39   1  0.4859  7.284710  2.695400 11.306400
40   1  0.7285 11.340500 10.587100 16.089900
41   1  0.5174 -2.154810 15.466500 13.377900
42   1  0.8374  0.740523 13.960200 21.455500
43   1  0.8434 -2.148160  7.433440 14.267500
44   1  0.7499 20.884800  3.804500  5.313280
45   1  0.7357 12.451400  5.106240 11.000800
46   1  0.6466 10.590100  2.200560 25.191500
47   1  0.6812 18.844100  2.903420  8.444970
48   1  0.6195  5.877520  9.858250  0.328337
49   1  0.7867  5.233840 15.464200  1.177200
50   1  0.8318  5.451010  5.002240 18.733600
51   1  0.5382  3.277600  6.054140  3.532750
52   1  0.6345  8.834440  7.337400 12.568100
53   1  0.5187 15.156000  1.983360 18.898400
54   1  0.6419 10.104700 18.883000 21.667700
55   1  0.5585  0.487727 14.702200  9.266480
56   1  0.6973  2.388700 16.593700 12.508000
57   1  0.4957  6.302730  2.615130 25.422900
58   1  0.3118  8.390530  5.081210 25.715000
59   1  0.7498 -1.180500  8.784690  3.443640
60   1  0.5147  6.511890  7.410460 24.957300
61   1  0.7736  7.497200  7.618140 20.514800
62   1  0.7927 11.848500  5.144140 19.735600
63   1  0.4430  9.239200  9.683760  3.906720
64   1  0.6418  1.281280  6.233390  5.817180
65   1  0.6571  3.872000  5.694970 27.130400
66   1  0.5603  3.332150  2.314710 10.352800
67   1  0.6319 20.276700 17.228500  1.223530
68   1  0.5724 18.153900 12.948100 17.297100
69   1  0.7820  5.361910 13.697900 19.631700
70   1  0.5902  8.229950 16.772200 17.234300
71   1  0.6874  2.066990  7.480920 19.799100
72   1  0.5170  4.915380  4.772830 12.026500
73   1  0.6769  9.668080 15.344700 26.663800
74   1  0.7252  8.918170  3.365520 18.161300
75   1  0.6791 -0.525379  8.695740 22.143200
76   1  0.4446  4.760830  8.133200  6.435670
77   1  0.8086 19.676700  7.443110  3.515450
78   1  0.8393  5.597870 10.765600 12.076100
79   1  0.4833 -2.166290 14.210200 10.460300
80   1  0.7355 -0.926781  2.158580 15.331000
81   1  0.6511 -2.272480  3.766070 20.915600
82   1  0.6045  2.480560 12.505800  8.665940
83   1  0.6571 -0.227482 17.445000 23.613600
84   1  0.6515 21.424300 11.823500 13.043500
85   1  0.7816 17.160600  4.222070  3.960060
86   1  0.7566 -1.047350  8.598540 18.377400
87   1  0.7901 11.995600 10.903500 19.892000
88   1  0.4889 18.392300  3.586910 21.179800
89   1  0.7919  0.180205 16.334500 17.423100
90   1  0.7527  6.335360  4.547970  3.418630
91   1  0.5190  3.088420  3.349800 25.003500
92   1  0.6467 12.048300  2.903120 16.244600
93   1  0.8320 21.677100 11.315000 23.785300
94   1  0.9155 -1.023880  2.420710  9.669230
95   1  0.5974  1.116120  2.409410  5.444330
96   1  0.6307 18.299300 12.361500 12.413500
97   1  0.7390 -0.390718  9.895220 10.503500
98   1  0.7548  2.777240  2.684680 16.395200
99   1  0.5834  4.335380  4.515500  6.944440
100  1  0.6523 21.886800 11.394100 19.556100
101  1  0.6503 20.192500 10.528600 15.869600
102  1  0.5336  6.336170  2.558940 21.574000
103  1  0.7683 -0.323572 13.126500 26.388300
104  1  0.5499  9.213310  7.589210  1.057800
105  1  0.7880 20.048800  2.960580 14.206500
106  1  0.5467 15.383400 15.326200 13.809700
107  1  0.7723  2.951940 13.393600 15.388400
108  1  0.5360 12.146400 14.279800 15.401200
109  1  0.7296 -1.512420  9.661290  7.030630
110  1  0.7327  5.148840  8.081150 16.346800
111  1  0.6864 14.444700  5.474550 15.362900
112  1  0.7977 13.792700  8.696070 12.139100
113  1  0.5933  0.960409  5.128650 11.802300
114  1  0.6931 21.066200 10.492600  1.222140
115  1  0.6623  3.358010 15.405800  6.400310
116  1  0.7690  2.406330 12.359400  2.246820
117  1  0.7361 21.257700  6.086770  9.459450
118  1  0.6482  9.337450 11.550000  0.266106
119  1  0.7898 21.065400 17.032700  5.527030
120  1  0.6901  8.996760 10.626700 24.340800
121  1  0.5191  5.942920 11.436900  4.725210
122  1  0.6782  4.619790 13.184700 25.337500
123  1  0.6491 11.028000  8.389030  9.730380
124  1  0.7811  8.799180 14.297100 21.250500
125  1  0.4321  0.238163  3.123550  2.018940
126  1  0.6541 21.712500 14.183700 16.654800
127  1  0.6440 21.945100 13.132900  5.920660
128  1  0.6954 14.187200 16.036400 20.226600
129  2 -0.6812  0.206493  7.702100 12.775700
130  2 -0.6851  7.659330 12.771100 26.071400
131  2 -0.9164 19.908400 13.305600 14.338700
132  2 -0.3381 15.343500  5.745320 22.460600
133  2 -0.5331 -1.821800  4.837630 11.254400
134  2  0.0451 11.650100 16.350500  8.061840
135  2 -0.4404 18.134600 17.620900 14.230100
136  2 -0.3525  9.771330 13.303200  2.704510
137  2 -0.1496 15.463600  6.489400  6.874450
138  2 -0.4752 20.646700  4.163780 16.701000
139  2 -0.0060 13.408000  6.785280  3.791990
140  2 -0.6053 20.307100 12.180200 21.649800
141  2 -0.4403 20.715800  8.107820 16.456100
142  2 -0.4329  6.584790  9.830210 22.670100
143  2 -0.5770 -1.308810  6.579820  5.389900
144  2 -0.4992  3.269700 14.841900 20.469900
145  2 -0.6272 -1.872930 18.309300 13.244400
146  2 -0.0316 19.203400  8.002420 22.119200
147  2  0.0119 14.414200  9.855000  3.006580
148  2 -0.7971 -0.717129 12.446800  8.008400
149  2 -0.7871 18.452900  9.893490 13.928000
150  2 -0.5564  5.263910 15.592700 17.252100
151  2 -0.5305  7.225690  8.613920 14.851900
152  2 -0.6222  7.772950 16.921600 19.788300
153  2 -0.6692  3.771530 12.455700  5.590970
154  2 -0.1182 11.962700 17.653700 11.721000
155  2 -0.5445 -0.489012 13.617800  2.138450
156  2 -0.5202  6.659850 11.382700 18.430200
157  2 -0.0019 16.953800 16.595400  6.812240
158  2 -0.6387 13.336500 12.737600 18.727800
159  2 -0.6396  0.264260 15.623900  6.588140
160  2 -0.6393  0.744820 18.025500 11.195800
161  2 -0.6296 -0.454804 12.473900 12.372100
162  2 -0.4332 -0.021141  6.878570  9.296490
163  2 -0.5586 15.487400 10.465400 11.933700
164  2 -0.3603  3.043360 17.276300  3.205640
165  2 -0.6868  2.965820 17.205400  8.888300
166  2 -0.7748 16.345200  2.447810 22.920700
167  2 -0.6511  4.166340  8.140940  1.926730
168  2 -0.5048 11.649300 16.093100 21.675500
169  2 -0.1473 10.941500  2.344600 10.056500
170  2 -0.7488  6.656100  5.174890  0.741056
171  2 -0.5502  0.781268  3.937440  7.570850
172  2 -0.6009  5.859560 13.670400 22.349200
173  2  0.0064  9.175700 14.281200  9.023930
174  2  0.0034 18.729500  6.686270 24.772400
175  2 -0.1716 17.301100 17.876100  2.315200
176  2 -0.5126  8.036620  6.090580 18.127400
177  2  0.0057 11.781100 14.641300  4.893770
178  2 -0.5465  2.321850  5.187580 18.238700
179  2 -0.2415 12.169100 11.546500 25.999900
180  2 -0.6899 -1.985680  2.220610 24.302800
181  2 -0.8000  1.043570  5.214520 27.405300
182  2 -0.5772  9.992560 13.524700 18.860400
183  2 -0.0079 13.550500 16.030000  2.342190
184  2 -0.7557  4.287200 11.278600 15.621900
185  2 -0.1387 18.307500 14.238500  1.939110
186  2 -0.6193 -2.736680  9.379070 12.004000
187  2 -0.7777 20.157000  0.586384 21.472900
188  2 -0.2663  5.951200 15.428300  4.215450
189  2  0.0210 15.312500 11.849200  0.859433
190  2 -0.3371  3.766060  1.897700 19.857400
191  2 -0.0996 14.321600  2.700600  6.158830
192  2 -0.0153 12.399500  2.085240  3.631480
193  2  0.0124 13.190200 17.310100  8.029870
194  2 -0.6304  1.993510 14.378000 24.286300
195  2 -0.4353  5.455850 12.561600  9.259350
196  2 -0.6241  5.169990  8.084040 12.083200
197  2 -0.1354 12.005900  6.609770  6.602140
198  2 -0.7867  3.570110  1.389710 23.506900
199  2  0.0175 17.479400 10.816900  6.658310
200  2 -0.3882 15.074200  3.697260  9.865480
201  2 -0.4768  8.058780 17.248800 10.619200
202  2 -0.6938  9.412580  4.914060 20.855200
203  2 -0.7110  4.811410  5.494180 14.833700
204  2 -0.6714  6.989070 12.912200 12.890000
205  2 -0.8322  0.853803 19.094200 26.017800
206  2 -0.5100 15.737100 15.060100 16.401700
207  2 -0.1297 13.146400 14.326900  1.116480
208  2 -0.5292 19.978100 15.305500 18.335200
209  2 -0.6158  0.973554  7.250460  2.837910
210  2 -0.6040 -1.485160 14.180100 23.134700
211  2 -0.5737 -1.459410 11.139400 16.735300
212  2 -0.0849  9.457230  4.122990  7.289690
213  2 -0.6715 19.972200  2.057940 26.893500
214  2 -0.4582 20.648500 11.868800  9.628160
215  2 -0.4759 15.424600 13.993400 21.958900
216  2 -0.5843 21.737100 15.584900  3.339830
217  2 -0.6500 -0.137397  5.939550 20.920300
218  2 -0.7093 21.270000  7.603440  1.549040
219  2 -0.5878  8.200750  9.792940 11.063300
220  2 -0.3731 -2.478950  7.318910 24.108700
221  2 -0.5406  6.145370  3.119920 17.262400
222  2 -0.5121 -0.691480  5.758500 15.907000
223  2 -0.6413  3.823590 14.209700 12.521500
224  2 -0.2665 16.720400  7.064620  2.916780
225  2 -0.0847  8.988640  1.229220  2.383980
226  2 -0.3964 15.485700  6.571450 17.730600
227  2 -0.6163  2.662740 10.506900 10.870900
228  2  0.0077 15.244700 10.918500  4.565850
229  2 -0.0778 17.295200  7.377390 27.628500
230  2 -0.7297  4.205570 18.563000 13.851900
231  2 -0.0334 12.764900  9.783940 26.681400
232  2 -0.6682 12.191600 11.164500 13.101900
233  2 -0.0434 12.845700  4.628950  3.527010
234  2 -0.5872  8.971640  6.377200  9.784010
235  2  0.0125 16.238300 10.293000 -0.042067
236  2 -0.8001  6.623530  5.833100  5.617110
237  2 -0.4411 17.143500 18.455900  9.228370
238  2 -0.4182 17.576400 14.058500 24.769200
239  2 -0.5465  5.232300 17.818200 -0.387023
240  2 -0.5798 -1.263640 13.717400 19.160200
241  2 -0.7452 11.559400  6.728600 13.023300
242  2 -0.7194  9.513310 13.067300 15.342300
243  2 -0.5803 21.850700  3.449850  8.092620
244  2 -0.6104  8.425040 17.753600 25.804700
245  2 -0.6652  0.818732 16.460600 15.089400
246  2 -0.6448 12.442500  2.124310 23.324900
247  2 -0.5362 21.493800 13.032700 26.285500
248  2 -0.0392 17.987400  8.522750 20.421100
249  2 -0.7013  9.341230  2.822160 15.828300
250  2 -0.7618  4.922760  5.331180 21.556900
251  2 -0.5406  0.746602  9.743120  5.055440
252  2 -0.5023 -1.294760 16.895900 20.559400
253  2 -0.4837  8.397450 16.472700 22.930000
254  2 -0.4631  4.033840  7.951440 24.841800
255  2 -0.4256 19.074200  8.217920  8.788610
256  2 -0.5132 11.399300  5.557290 26.299500
257  2 -0.0237 10.055400 16.936100  4.087300
258  2 -0.5756 19.798500  4.093160  2.994250
259  2 -0.4626 11.075400  9.032800  2.088440
260  2 -0.5857  1.244670 10.577500 20.271000
261  2 -0.6206  2.413120 14.353700  0.677997
262  2 -0.3385 10.549800 14.362700 11.977600
263  2  0.0441 17.592700 12.616900  7.825140
264  2 -0.6398 15.714400  6.760540 12.652800
265  2 -0.6275 16.292200  3.118050 16.629900
266  2 -0.4156 17.456500 10.018200 18.404500
267  2 -0.5531 22.057500 17.107600  8.831540
268  2 -0.1658 18.669300 12.511900  3.252200
269  2  0.0203 10.332300  2.302170  6.300510
270  2 -0.4823 10.942300  7.600780 21.672900
271  2 -0.5069  8.904160 10.975500  6.775150
272  2 -0.4388 20.173300  4.400030 23.178200
273  2 -0.4332 11.462700  6.365950 17.465000
274  2 -0.6817  5.374750 12.564800  1.527970
275  2 -0.4463  3.712850  3.327850  1.937660
276  2 -0.0044 16.374600 10.865100 23.938100
277  2 -0.2176 19.466800 10.050400 25.978600
278  2 -0.4142 17.901500 14.705800 10.152300
279  2 -0.4379 13.738200  7.563200  9.460410
280  2 -0.2388 19.356500 14.673500  6.058140
281  2 -0.5207 21.629800  8.527010 19.904000
282  2 -0.5542 -0.429221 10.919300 23.473700
283  2 -0.0000 16.303600  8.328630  6.135270
284  2 -0.2953  9.580010  9.360970 17.890200
285  2  0.0065  9.208960 14.783200  7.069370
286  2 -0.5195 19.207600  6.553870  5.804960
287  2 -0.3872 16.013700 18.016400 26.712200
288  2 -0.3798 11.604800 12.675700 22.625100
289  2 -0.5097 13.956700  2.976710 13.428800
290  2 -0.2347  2.079340 10.833600 26.334100
291  2 -0.3128 11.955200 17.932000 27.697200
292  2 -0.2636 13.837500  9.021000 20.648300
293  2 -0.0629 12.701500 12.671800  8.603220
294  2 -0.4620 16.550800 16.059400 19.126000
295  2  0.0073 16.214900  8.624530 23.882400
296  2 -0.6091  1.543950  8.419930 16.397700
297  2 -0.9391  8.421350  9.156680 26.263200
298  2 -0.1099 18.066900  4.856790 27.294900
299  2  0.0322 16.718200 15.745900  4.033320
300  2 -0.8072  3.562560  5.243210  9.858630
301  2 -0.4590  4.552460  2.466770  5.205020
302  2 -0.5431 14.263200  9.358990 15.401700
303  2 -0.0305 14.848500 13.071000  8.587590
304  2 -0.6212  4.910610  7.928180 19.105600
305  2 -0.4481  1.816240 13.228200 17.832100
306  2 -0.5597 -0.711553 10.265300  1.058520
307  2 -0.5017 19.075100  6.375910 13.323900
308  2 -0.5643  2.442100  8.602780  7.663830
309  2 -0.7779 11.691200  2.175360 19.274000
310  2 -0.0023 13.052900  5.031900  7.096740
311  2 -0.0481 12.623300 12.452000  5.662280
312  2 -0.1162 14.766400  5.225600  0.629453
313  2 -0.5866  0.091456  2.071960 17.685100
314  2 -0.5269 18.811800  1.914520  5.414980
315  2 -0.6674 10.729500 17.102600 15.632800
316  2 -0.7957 -2.074750  2.127900  3.898840
317  2 -0.5252 21.217600 17.506800 15.888600
318  2 -0.0256 15.073800 17.964600  5.366430
319  2 -0.5649 21.058900  9.678030  5.220060
320  2 -0.6994 19.283800  3.888340 11.111600

