Generated by pymatgen.io.lammps.data.LammpsData

320  atoms

  2  atom types

0.000000 16.864293  xlo xhi
0.000000 23.165087  ylo yhi
0.000000 24.472453  zlo zhi

Masses

1  208.9804
2   78.9600

Atoms

1    1  0.7570  9.543320 11.961900  4.183950
2    1  0.7158  9.041730  9.783170  1.703110
3    1  0.8580  0.894769  6.063160 15.694100
4    1  0.7088  4.982110  2.271550 18.248200
5    1  0.8042  5.636930 14.173400 12.364900
6    1  0.7250  3.761590 13.455000 16.073600
7    1  0.6899  5.672070 16.702400 15.238900
8    1  0.8641  4.187570  7.323790 16.493800
9    1  0.6828 11.806000  9.276500 11.202200
10   1  0.6790  5.135410 11.797100 23.019100
11   1  0.7613 11.000100  1.157110 10.568500
12   1  0.8405 13.596700  0.321293 23.910300
13   1  0.6375 15.866000  8.010770  3.238300
14   1  0.6504  5.810370  8.038210 21.709600
15   1  0.9633  2.430090 19.583100 12.960400
16   1  0.7984  4.099580  2.877220 22.836200
17   1  0.6133  5.331210 20.337800  8.245290
18   1  0.6284 15.571200  7.902090  8.043430
19   1  0.7291  4.218200  8.526070  0.938480
20   1  0.7051  2.738510  3.376070 12.223800
21   1  0.6369  7.716180  3.526130 11.138300
22   1  0.6484 16.117700 23.246600 20.668500
23   1  0.7411 12.188700  8.223770  3.089250
24   1  0.8133  3.523510 11.529900  9.906060
25   1  0.7315  8.568800  1.501950  8.292210
26   1  0.7733 14.992500 21.004400 12.556400
27   1  0.6337 10.692700 13.417200  7.272530
28   1  0.8132  5.789530 10.093900 12.462600
29   1  0.7272  0.979574  3.931120 19.567400
30   1  0.8023  5.941220 21.865000 13.094000
31   1  0.8647  1.456140  5.282240  1.154300
32   1  0.7419 14.859300  1.960590  6.778580
33   1  0.5563  2.368270 10.786100  6.088560
34   1  0.4773  3.007980 21.745400 21.062200
35   1  0.7926 16.170200 14.476400 10.452900
36   1  0.6253  1.633520 21.645500  0.146085
37   1  0.7741  1.982960  0.563869  6.438890
38   1  0.5987  8.159580 10.643900 21.105200
39   1  0.7845  9.546570 16.031600 11.378200
40   1  0.6497  4.870940 20.775600  1.683190
41   1  0.7152 12.307700 20.880700 10.056600
42   1  0.7428  0.580151  7.189910 11.787900
43   1  0.6690  7.830870 19.603600 15.465500
44   1  0.8150  5.839760 14.558900 19.968100
45   1  0.7095  1.354800  6.561190  6.756380
46   1  0.7350 13.580500  4.077860 18.091500
47   1  0.7281  2.104360 18.618800  9.249610
48   1  0.8207 15.020600  9.961460 13.252200
49   1  0.8177 14.645600 12.238800  5.774560
50   1  0.7293  0.330421  3.811550  9.391450
51   1  0.6490 12.904200 22.028300  6.542260
52   1  0.7017  8.628240 14.369100 16.436400
53   1  0.6954  7.696980  7.204400  6.043400
54   1  0.6406  8.117510  6.436530 12.391200
55   1  0.7436  3.676740 13.366200  1.966280
56   1  0.6818  7.594530 18.300700 18.847700
57   1  0.7245  8.750460  9.639880 14.367900
58   1  0.8146  2.108300  9.515730 14.351900
59   1  0.7508 11.131000 22.838000  2.899870
60   1  0.6304 10.166300 17.142000 14.914900
61   1  0.7447  3.460490  4.421730  4.990570
62   1  0.8594 11.709300  5.012710 14.677900
63   1  0.7550  5.892410  5.290470  2.001500
64   1  0.7263  6.287670 21.606900 23.211700
65   1  0.7193  4.292500  7.432240 10.735500
66   1  0.6842 14.192000  4.176300  3.059300
67   1  0.7260  8.005310 18.325100  4.392590
68   1  0.7115  6.960580 10.304500 17.521600
69   1  0.7182  5.797240 22.591200  9.569960
70   1  0.6592  1.666940 20.541100  5.853230
71   1  0.6352 11.870900 19.305500  5.881550
72   1  0.6721  4.939300 19.501800 20.623200
73   1  0.8850  8.108810  1.813930 15.653200
74   1  0.6596  4.219400  0.996317  3.521480
75   1  0.7352  8.152750 16.744200 22.201400
76   1  0.7634  6.118760 18.266500 12.240900
77   1  0.7023 12.889400  5.256490  0.114649
78   1  0.6687  6.713040  0.128324 19.102900
79   1  0.6342 12.040800 16.157300  8.024090
80   1  0.6774  7.317780  7.950480  8.705290
81   1  0.7645  4.710000  4.436330  8.448720
82   1  0.7183  8.298080  6.149830 16.350700
83   1  0.8441  0.069493  0.209940 10.000700
84   1  0.6085  5.506960  5.044310 13.992700
85   1  0.6737  6.095830 10.833800  5.408080
86   1  0.7906  2.831230 11.270300 18.775400
87   1  0.7277  8.951070 21.019200  7.581690
88   1  0.7594  9.661460 19.265800  0.938066
89   1  0.8751  9.120430  6.646840  2.281120
90   1  0.8440 13.536800  6.055440 11.530100
91   1  0.8350 12.478900  4.870300  8.247780
92   1  0.7631 12.995600  1.118630 15.585700
93   1  0.6561 12.658800 12.174300 10.846400
94   1  0.6330  7.969850  3.790130 20.334000
95   1  0.6240  6.676980 16.247700  1.539230
96   1  0.7224 10.361800  1.496730 18.866800
97   1  0.6461 15.142500 22.535200  3.299660
98   1  0.6726 11.398300  2.804130 22.261700
99   1  0.6845  2.244100 13.968600  7.914380
100  1  0.6319  2.642640 18.172500  2.889540
101  1  0.8970 10.357500  4.177720  5.019720
102  1  0.8860  6.810640  1.749300  5.335410
103  1  0.6748  4.087910 16.121400 10.067300
104  1  0.8073 10.247800 21.789100 22.071500
105  1  0.8405 10.808200 15.868000  2.991070
106  1  0.7509 13.768600  8.449100 23.927400
107  1  0.8263  3.393060  0.757591 14.958200
108  1  0.6063 16.673900 19.293600  1.304210
109  1  0.7981 14.509800  2.353540 12.444500
110  1  0.7844 15.619000  5.637290 22.445800
111  1  0.8549 15.837900 16.131700  4.131380
112  1  0.6679 15.259900 18.541000  9.468930
113  1  0.6405  6.995620  4.845390 22.837500
114  1  0.6964  9.631190 13.020700 13.155500
115  1  0.6256  1.043920 10.826600  2.065410
116  1  0.7209  0.949648 13.673900 13.644900
117  1  0.7549  0.935720  1.538400  2.329330
118  1  0.5424  3.850120 21.933500 18.008100
119  1  0.8562  7.866430 17.497400  8.142060
120  1  0.8357 11.673400  9.107290  7.148280
121  1  0.8052  9.379560  2.849120  1.690810
122  1  0.5787 16.709200  0.502746 16.959600
123  1  0.6560  9.081870 13.766600  0.354204
124  1  0.8219  7.253060 12.165500  8.469120
125  1  0.8943 10.325600  7.224670 22.440800
126  1  0.6674  9.368410  4.830190  8.728910
127  1  0.7089  5.201490 15.614100  5.721580
128  1  0.6530  0.047911  9.793360  9.789710
129  2 -0.8481  2.291010  6.114700  9.771250
130  2 -0.2622 14.922600 20.136900 15.049600
131  2 -0.5636 11.842800 11.436200  5.009450
132  2 -0.5779  2.822090 15.162400  4.159860
133  2 -0.7042  7.305150  3.895750  7.016190
134  2 -0.5911  2.140190 21.509300  8.377350
135  2 -0.6759  6.981380 16.015100 10.728500
136  2 -0.4318  5.184760 16.875300 21.372200
137  2 -0.5740  8.309520  0.353631 11.001900
138  2 -0.6166 12.742000  6.484870 22.054900
139  2 -0.7513  2.653000  1.656040 17.420500
140  2 -0.4557 13.035400 18.925600 11.953900
141  2 -0.7791  7.838310  2.861440 17.886400
142  2 -0.3529  1.682900  7.255680 17.824500
143  2 -0.1074 12.524900 18.542400 16.894700
144  2  0.0534 14.253800 15.845100 16.806000
145  2 -0.3611 10.814900 10.248200 22.472600
146  2 -0.2770  9.243310 12.985600 20.284700
147  2 -0.4487 11.198300 14.657500 15.625500
148  2 -0.4746  2.064820 21.615700 15.821100
149  2 -0.4698  1.155070  4.989550 22.616700
150  2 -0.7268  8.362390  9.033630 11.956800
151  2 -0.5668  8.904740 22.102500  0.240993
152  2 -0.0086 12.409300 16.099400 20.673600
153  2  0.0343 12.638800 10.451600 19.782900
154  2 -0.7354  4.033920 19.793200 10.888800
155  2 -0.7101 12.972400  7.378010  9.236530
156  2 -0.1688 11.408600  8.453750 16.077300
157  2 -0.6889  0.160715  9.390490  5.339710
158  2 -0.9232  7.679670 15.560000 14.154300
159  2 -0.6344  4.065640 -0.056801  0.492822
160  2 -0.0244 12.722100 12.668800 23.363700
161  2 -0.5597 16.352800  8.400740 14.721500
162  2 -0.4084  0.547878 16.592500  1.606040
163  2 -0.4032  3.342170 22.843200 12.379100
164  2 -0.2955 10.911500 18.410400 22.437400
165  2 -0.7831  1.079860 11.928800  8.970370
166  2 -0.7010  5.712760 12.561100 17.900800
167  2 -0.6620  5.198720 19.793200 14.412900
168  2 -0.1345 14.926700 20.537100 18.676700
169  2 -0.5042  6.489350  7.741780  3.761540
170  2  0.0581 12.804100 12.723000 19.668800
171  2 -0.7574 11.532500  7.730860  0.253775
172  2 -0.0889 14.461100 10.898400 22.127900
173  2 -0.4829  0.804839 11.925500 16.377100
174  2 -0.3492  3.908530 15.873200  0.762028
175  2 -0.6182  5.177010 19.127100 18.023800
176  2 -0.3242 11.963500 22.218000 13.742200
177  2 -0.6480 13.870000  3.043600 22.251600
178  2  0.0369 15.769800 17.669300 19.755000
179  2  0.0272 13.092200 10.771600 17.095500
180  2 -0.5707 13.650700  7.960130  5.687320
181  2 -0.6106  6.379490 18.805600 -0.210204
182  2 -0.5364  0.080896  1.317510 12.908700
183  2 -0.5516  7.858640 12.354000 11.160000
184  2 -0.7285  6.696320 10.057200 24.107700
185  2 -0.7980 11.296800 22.512300  8.533140
186  2 -0.5547 14.043500  3.669200 15.516500
187  2  0.0426  1.789150 16.117400 22.840300
188  2 -0.3528  3.140610 13.378600 20.625800
189  2 -0.5910  2.066790  3.604730  7.016590
190  2  0.0467  0.429794 14.868300 23.250700
191  2 -0.4887 12.502700 21.123800  0.303413
192  2  0.0331 13.562900 12.898800 17.156600
193  2 -0.6244 15.468500 19.557700  3.783180
194  2 -0.7743  2.950200  7.070200 13.764500
195  2 -0.6173 15.885500 22.357400  7.595450
196  2 -0.5690 10.998000  2.910860 16.166200
197  2 -0.1493 13.743600 16.114100  1.520380
198  2 -0.2684 15.628200  6.692700 19.528500
199  2 -0.5590  5.747850  1.808530  8.644000
200  2 -0.5525 16.602300  3.806250 17.026400
201  2 -0.6088 10.486800 11.123000  9.590320
202  2 -0.6867  8.236290  6.983990 20.884400
203  2 -0.7628  4.928700 13.428800  8.867430
204  2 -0.0353 12.017200 15.110700 18.815500
205  2 -0.6575  7.535380 20.267300  9.911080
206  2 -0.7330  2.434230  9.455430 11.709300
207  2 -0.5185  0.322869 20.936000 21.617100
208  2 -0.6974  7.356580 20.926900 20.962300
209  2 -0.1144 14.097800 18.802300 23.286000
210  2 -0.6859  4.048970 16.558400 12.743800
211  2 -0.5906  1.088720 18.147100  7.136960
212  2 -0.0864 15.628800 13.456300  0.970524
213  2 -0.5308 12.604000 -0.223111 21.520100
214  2 -0.6835 11.916000  2.122590  1.032290
215  2 -0.6754 15.504800 12.287000 11.748100
216  2 -0.6036  3.893270 12.132400 12.878100
217  2 -0.6487  1.876360 14.354300 11.245500
218  2 -0.4500  3.690310  4.382990 19.891800
219  2 -0.4050  2.458490 12.634100 24.293200
220  2  0.0211 12.732700 14.066900 22.387300
221  2 -0.6800 16.272700  1.527600  4.647800
222  2 -0.4538  6.077810  6.003660 18.094500
223  2 -0.5704  4.234020  7.383150  6.381760
224  2 -0.7324  8.625650  4.105210 14.314800
225  2 -0.6486  3.857020 10.713600  3.222240
226  2 -0.4397 13.012500  7.285900 14.112000
227  2 -0.6008 10.296900 21.704900  5.499310
228  2 -0.3957 10.885900  5.527490 18.380200
229  2 -0.0481  0.584972 19.258800 17.493100
230  2 -0.7020  5.785370 23.432500 15.823700
231  2 -0.5008  0.695528 21.275900 12.074400
232  2 -0.2004  2.682110 17.713400 15.077000
233  2 -0.6395  9.590680  8.411750  4.198390
234  2 -0.3696  3.016520 10.006600 22.079700
235  2 -0.0073 16.168400 12.694300 20.155000
236  2 -0.6799  9.889540 16.366900  0.694669
237  2 -0.5760  3.905930  5.815130 24.227700
238  2 -0.7891  6.516330  7.965350 15.068300
239  2  0.0312 14.514500 16.871700 22.770600
240  2 -0.0079  2.451730 18.452400 17.321100
241  2 -0.6483 13.272600 11.687700  7.996090
242  2  0.0239  0.095151 17.548900 15.316500
243  2 -0.5356  2.282940  7.173700  3.109130
244  2 -0.4043 11.453900 13.405100  1.925390
245  2 -0.7346 10.995100  3.042130  7.613180
246  2 -0.6751  3.618130  3.663770  2.150950
247  2 -0.5126  9.197160  1.592040  4.620490
248  2 -0.4445  7.405180 21.097500  3.589550
249  2 -0.7112  8.060380  4.504870  3.651530
250  2 -0.6744  7.718640  7.011200  0.237092
251  2 -0.4807  9.033570 18.753200 12.624700
252  2 -0.6108 15.912600 23.278500  0.613536
253  2 -0.6724 13.881200  3.339100  9.869670
254  2 -0.0822  1.782790  8.588540 22.032900
255  2 -0.5582 12.571300  1.294700  4.705320
256  2 -0.2040  9.830960 12.567100 18.276400
257  2 -0.6414 13.544100  1.182500 18.480200
258  2 -0.2071 10.235800  8.382840 18.116500
259  2 -0.8706  1.797840 22.131800  3.424770
260  2 -0.5204  4.446880 15.700300 17.361800
261  2 -0.4975 16.611200 14.956700  7.814400
262  2 -0.6811 10.646100  6.325920  6.419940
263  2 -0.7817  4.891050  0.752244 21.092000
264  2 -0.9531  6.892080  5.704020 10.119100
265  2 -0.5313  7.578250 14.779800  7.544810
266  2 -0.7025  7.211790 11.832200  3.076570
267  2 -0.5992 15.815600  5.134210  6.989230
268  2 -0.2345 10.579300 22.231700 17.410700
269  2 -0.0133 13.147500  8.501580 19.784700
270  2 -0.7760  5.474680 17.590100  7.204410
271  2 -0.5210  3.374070  4.474070 15.849200
272  2 -0.5399  8.176470 20.702700 17.877600
273  2  0.0404 13.379200 19.298300 20.108100
274  2 -0.7392  4.222020  1.682850  5.813270
275  2 -0.6466 15.782800  4.835880 12.385900
276  2 -0.6604  8.594080 15.135800  4.205810
277  2 -0.5557 11.757600  2.713200 12.869900
278  2 -0.4529 15.997900  3.557770  0.534541
279  2 -0.1084  0.552581 15.799200 16.443800
280  2 -0.6241 12.260600 15.248100 10.784600
281  2 -0.7327  8.631090  1.103300 20.991100
282  2 -0.6356 14.214700 18.022200  7.082960
283  2 -0.5879 10.186700 17.928300  9.535550
284  2 -0.7088  8.362960 10.490400  6.804200
285  2 -0.3537  8.604100 21.780300 14.314000
286  2 -0.0468 12.074200 21.184700 18.759000
287  2 -0.6385  6.846450 22.738100  6.652430
288  2 -0.0745 16.265400 14.019300 18.473800
289  2 -0.7793 15.943600  6.799680  0.570251
290  2 -0.4836  1.194840  0.762839 22.894300
291  2 -0.5916  0.409155 18.352800 11.394800
292  2 -0.1877 14.556000 13.786900 14.330500
293  2 -0.7072 10.698400  5.611220 11.206100
294  2 -0.6835 10.094000  4.763980 23.947200
295  2 -0.4905  0.026681 13.406200  4.391510
296  2 -0.6453  8.498850 16.105300 19.702000
297  2 -0.7515 11.236200  5.327010  2.815930
298  2 -0.4586 13.250000 14.868800  5.003860
299  2 -0.5541  2.128600  1.991480  9.881710
300  2 -0.6431  4.069970 10.380000 15.840800
301  2 -0.4768 16.739400  4.787710  4.077470
302  2 -0.0041  0.428327 16.757100 20.312900
303  2 -0.6827  9.712860 17.159500  6.256370
304  2 -0.6866  6.912730 13.904700 22.634900
305  2 -0.6265  6.427090  2.962030  0.125475
306  2  0.0016 15.971700  9.845700 18.527500
307  2 -0.0671 14.157500 15.994100 14.603500
308  2 -0.4634  3.268870 19.032000 23.677700
309  2 -0.6595  5.359160  2.610310 12.807600
310  2 -0.5168  4.706550  8.830730 19.045000
311  2 -0.7750  5.428090  9.500510  9.557770
312  2 -0.6231 10.939200 18.849000  3.104430
313  2 -0.5474 11.503000 10.901600 13.824100
314  2 -0.6336  7.579030 12.162100 15.141000
315  2 -0.7362 14.395300 23.055500 10.585800
316  2 -0.6771  5.322990 18.322600  3.486030
317  2 -0.0757  0.517971  9.470250 19.930500
318  2 -0.4875 13.165700 10.355500  1.921740
319  2 -0.8588 15.248800  8.277000 11.296200
320  2 -0.1233 16.423900 10.913300 22.862700

