Generated by pymatgen.io.lammps.data.LammpsData

360  atoms

  2  atom types

0.000000 16.677463  xlo xhi
0.000000 21.699897  ylo yhi
0.000000 28.493178  zlo zhi

Masses

1  208.9804
2   78.9600

Atoms

1    1  0.7511  1.843640 12.782800 20.960200
2    1  0.9014  4.248050 16.300200 20.735100
3    1  0.7285  1.608960  5.769930 20.013700
4    1  0.8420  4.503580  9.149640 19.994800
5    1  0.7757  6.215470 13.089400 20.678200
6    1  0.7925  8.799150 16.903100 20.433100
7    1  0.8459  1.946100 19.974700 20.345400
8    1  0.7415  3.779220  1.718690 19.519700
9    1  0.8757  6.188200  5.132210 20.596300
10   1  0.7878  8.712330  8.571440 19.755700
11   1  0.7037  9.500150 11.735300 20.808500
12   1  0.8284 12.210900 16.444000 21.095600
13   1  0.7833  6.146480 19.843600 19.716500
14   1  0.8094  8.122500  1.877630 21.010900
15   1  0.8135  9.808810  4.914500 19.644100
16   1  0.8510 12.492700  8.542080 20.373900
17   1  0.7996 14.647400 12.201700 20.589100
18   1  0.7269  0.173705 16.170600 20.788000
19   1  0.7816 10.590100 20.269400 20.150400
20   1  0.7543 12.286300  2.010420 20.322600
21   1  0.6854 14.644400  5.385760 20.794000
22   1  0.8409  0.153291  8.983510 20.539200
23   1  0.8771 14.403100 19.973200 20.979900
24   1  0.7358  0.229583  1.937510 19.979300
25   1  0.8635  2.432620 12.932300 26.278300
26   1  0.7416  4.247210 16.727500 26.778100
27   1  0.7953  2.462440  6.365860 25.969000
28   1  0.8822  4.614010  9.274010 26.523800
29   1  0.8224  6.476790 12.855900 26.196000
30   1  0.7879  8.447570 16.509200 26.512300
31   1  0.7345  2.655470 19.814700 26.193800
32   1  0.7013  4.229240  2.668160 26.496000
33   1  0.7528  6.147970  5.657440 26.684100
34   1  0.8382  8.208240  9.355060 26.516100
35   1  0.7945 10.559100 12.969000 26.795900
36   1  0.7802 13.046200 16.713500 26.771600
37   1  0.7152  6.280830 20.678900 26.590100
38   1  0.8286  8.274480  1.467560 25.985400
39   1  0.7486 10.698600  5.209760 26.272000
40   1  0.7930 12.563600  8.747100 26.676400
41   1  0.8141 15.260500 12.564100 26.657500
42   1  0.7547 16.638800 16.451700 26.767700
43   1  0.8606 10.613300 19.893900 25.522100
44   1  0.8129 12.259100  2.086970 26.508700
45   1  0.8104 14.603000  5.462140 26.997100
46   1  0.8049 16.651500  9.129450 26.004900
47   1  0.8129 15.222500 20.167500 26.651700
48   1  0.8536 16.574000  1.999400 26.687100
49   1  0.7451  2.310410 15.313800  0.792236
50   1  0.7661  4.481090 18.823800  1.547230
51   1  0.7762  2.342740  8.265940  1.628350
52   1  0.7656  4.109480 11.753700  1.058030
53   1  0.7509  6.283800 15.342100  1.338810
54   1  0.7449  7.714080 19.164000  1.589360
55   1  0.8172  2.054430  0.695602  2.411830
56   1  0.7503  4.505490  5.068430  1.236530
57   1  0.8256  6.215100  8.297990  2.253800
58   1  0.8159  8.481040 11.709200  1.296660
59   1  0.7250 10.484900 15.923900  1.542410
60   1  0.7600 12.201300 19.440300  1.608820
61   1  0.7659  5.570180  0.617228  1.348540
62   1  0.7837  8.446710  5.009650  1.406130
63   1  0.7133 10.832400  8.005490  1.396610
64   1  0.7433 13.588400 11.989600  1.389970
65   1  0.6378 14.755200 15.323900  1.230150
66   1  0.8653  0.387517 19.229700  1.726920
67   1  0.8763 10.543600  1.137080  1.088230
68   1  0.7602 12.728300  4.415830  1.269420
69   1  0.8525 14.700800  8.265050  1.529980
70   1  0.6229  0.395726 12.242800  1.471830
71   1  0.8124 14.821700  0.495593  1.345840
72   1  0.7935  0.042764  4.211870  1.667340
73   1  0.7698  1.760960 15.381300  7.407760
74   1  0.7638  4.081220 18.802100  7.197080
75   1  0.8645  2.158110  8.130630  7.809340
76   1  0.7874  4.024060 11.608600  7.244610
77   1  0.7856  6.396080 15.076100  7.571750
78   1  0.7732  8.177890 18.926500  6.846910
79   1  0.7069  2.125600  1.468710  6.722950
80   1  0.7976  4.731620  4.490460  7.323250
81   1  0.7536  6.572700  7.369700  7.123890
82   1  0.8199  8.024680 11.681100  7.121910
83   1  0.7673 10.121100 16.144400  7.562810
84   1  0.7586 12.613400 18.875900  7.829440
85   1  0.7570  6.317140  1.059390  7.571480
86   1  0.7320  8.823340  3.831560  7.105180
87   1  0.6944 10.285600  7.422310  7.781420
88   1  0.8017 11.888900 11.740600  7.491140
89   1  0.8003 14.621300 15.582700  7.962830
90   1  0.7036  0.524350 19.026100  7.184540
91   1  0.8353 10.331000  0.064824  6.878290
92   1  0.7767 13.223600  3.713690  7.404440
93   1  0.8058 13.614900  7.805100  7.527560
94   1  0.7642 16.225100 11.523100  7.785110
95   1  0.6699 15.071000  0.618719  6.883830
96   1  0.7386  0.022901  4.654580  7.218020
97   1  0.7768 16.445500 13.908700 11.419200
98   1  0.8377  2.084230 16.526900 11.144000
99   1  0.8489 16.363100  5.829560 10.962000
100  1  0.7710  1.712700  9.719400 11.382900
101  1  0.8954  4.272140 13.645200 10.854700
102  1  0.7942  6.119630 17.752500  9.926760
103  1  0.6805  0.160318 21.257200 10.042200
104  1  0.8735  2.119220  2.938690 11.061500
105  1  0.8197  4.721190  7.018980 10.777400
106  1  0.7843  6.825620 10.550500 11.568700
107  1  0.7895  8.815370 14.533100 10.859000
108  1  0.8466 10.704300 17.665800 11.145700
109  1  0.8162  4.270780 21.190700 10.458500
110  1  0.6921  6.579940  3.141620 10.031000
111  1  0.7664  8.582160  6.297630 10.722100
112  1  0.7330 10.698800 10.610600 11.829600
113  1  0.7676 12.473200 13.756400 11.022800
114  1  0.8776 14.664900 17.579500 11.319500
115  1  0.8204  8.167410 20.962800 11.049600
116  1  0.8337 10.248600  2.560540 10.973200
117  1  0.8150 12.577300  6.639990 11.681300
118  1  0.6663 14.390800 10.170100 11.127400
119  1  0.8099 12.484000 21.127400 10.661400
120  1  0.7589 14.407900  2.697080 10.226300
121  1  0.7328 16.323100 14.122300 17.191400
122  1  0.6408  1.564360 17.389300 17.349000
123  1  0.7386 16.612400  6.348490 16.941500
124  1  0.8093  1.960920 10.512600 17.267100
125  1  0.8725  4.076150 14.069000 16.959500
126  1  0.8448  6.660530 16.955100 16.119800
127  1  0.8436  0.193055 20.997500 16.362700
128  1  0.7366  2.508540  2.801650 16.268600
129  1  0.6954  3.626420  6.567150 16.928300
130  1  0.7925  6.014980 10.287100 16.844900
131  1  0.8185  8.051370 13.718300 17.164800
132  1  0.7769 10.091300 17.372300 17.419900
133  1  0.7656  3.907330 20.789200 16.918500
134  1  0.7577  5.710600  3.374880 15.958000
135  1  0.8388  7.839090  7.908040 14.833600
136  1  0.7428 10.392500 10.036500 17.207100
137  1  0.8807 12.415300 14.090100 17.765700
138  1  0.7358 14.746500 18.059600 17.372400
139  1  0.7810  8.509740 21.197600 17.020000
140  1  0.7987 10.444800  2.716180 17.057500
141  1  0.8168 13.440700  6.629570 16.631200
142  1  0.9054 14.452700 10.074800 16.958000
143  1  0.8299 12.831300 21.252200 16.772300
144  1  0.7818 15.172700  2.703480 16.875600
145  2 -1.0075  0.464429 14.040100 27.420300
146  2 -0.8581  1.906900 17.875400 28.410500
147  2 -0.7336  0.288985  7.162640 27.900300
148  2 -0.8297  2.483570 10.468800 27.896100
149  2 -0.8975  4.376500 14.107100 27.888300
150  2 -0.8846  6.537440 18.146000 27.840200
151  2 -0.8644  0.041558 21.511300 28.284300
152  2 -0.7087  1.539800  4.005400 27.843200
153  2 -0.9096  4.405970  7.257080 28.321600
154  2 -0.8721  6.358760 10.434800 27.905200
155  2 -0.8327  8.178580 14.049400  0.093103
156  2 -0.7109 10.142100 18.556700 27.995900
157  2 -0.8725  3.670500 21.361400  0.036928
158  2 -0.7605  6.490950  3.245400 28.170300
159  2 -0.8232  7.883840  7.123190 28.240500
160  2 -0.7480 10.908700 10.513500 28.079200
161  2 -0.7991 12.570900 14.071200 28.252700
162  2 -0.8289 14.567000 18.110000  0.129593
163  2 -0.7242  8.265700 21.537100 28.406800
164  2 -0.8172  9.940550  2.890890 27.884000
165  2 -0.9947 13.229000  6.777410  0.166738
166  2 -0.8715 14.494100 10.286800 27.907700
167  2 -0.7855 12.484100 21.612200 27.832400
168  2 -0.9183 14.685100  3.370020 28.244600
169  2 -0.3101  2.626640 15.241700 24.679500
170  2 -0.2815  4.785170 18.726300 24.579200
171  2 -0.3595  2.501570  8.841160 24.590200
172  2 -0.3721  4.615400 11.585000 24.833600
173  2 -0.3665  6.076580 15.832700 25.050000
174  2 -0.3134  8.174440 19.333600 24.697400
175  2 -0.2713  2.349340  1.392240 24.739200
176  2 -0.4201  4.036450  4.788090 24.667200
177  2 -0.2922  6.569330  8.154540 24.618700
178  2 -0.4549  8.304340 11.527000 24.895800
179  2 -0.4694 10.823100 15.631000 25.543600
180  2 -0.4745 13.069300 18.692200 25.153500
181  2 -0.4120  5.860740  1.123720 24.661100
182  2 -0.3823  8.435570  4.671200 25.113000
183  2 -0.3845 10.537100  7.672530 25.135000
184  2 -0.1242 12.500100 10.930400 24.156800
185  2 -0.4099 14.422900 14.576900 25.497200
186  2 -0.4559  0.326192 18.715200 25.021100
187  2 -0.4525 10.576400  1.314910 24.809500
188  2 -0.4117 12.872600  4.280150 24.866900
189  2 -0.3062 14.368600  7.754690 24.490600
190  2 -0.4060  0.043085 11.501100 24.552900
191  2 -0.3316 14.753200  0.589107 24.821000
192  2 -0.2353 16.588700  4.477860 24.706700
193  2 -0.3672 15.834800 14.215000 22.409000
194  2 -0.2980  2.436100 17.324300 22.669800
195  2 -0.4531  0.350291  6.845920 22.205100
196  2 -0.4397  2.458010 10.223600 21.614200
197  2 -0.3311  4.053350 13.801900 22.499500
198  2 -0.3199  6.562100 17.882500 21.722400
199  2 -0.3670  0.117347  0.010873 21.933600
200  2 -0.2788  2.661350  3.279430 21.725200
201  2 -0.2729  4.475860  7.298200 21.867300
202  2 -0.3227  6.140950 10.342300 21.828800
203  2 -0.3596  8.321360 14.233900 22.409600
204  2 -0.4152 10.112300 17.847000 22.442400
205  2 -0.2714  4.226650 21.536200 21.931600
206  2 -0.3234  6.228190  3.021830 22.393700
207  2 -0.3462  8.529180  6.736970 21.567000
208  2 -0.3654 10.225900  9.521320 22.049100
209  2 -0.3897 12.014200 13.429600 21.556900
210  2 -0.3943 14.363700 17.723400 22.241800
211  2 -0.4311  7.959840 20.935300 21.792000
212  2 -0.4741 10.069600  3.309900 21.745500
213  2 -0.3404 12.192400  6.293620 21.755100
214  2 -0.4637 14.205500  9.634430 21.779700
215  2 -0.4493 11.915200  0.022051 22.087300
216  2 -0.3071 15.255600  2.955910 22.231500
217  2 -0.7790  2.042530 13.048000  9.546280
218  2 -0.8147  4.302130 15.863700  9.170990
219  2 -0.6513  2.162690  5.419630  9.369110
220  2 -0.7733  4.258910  8.957140  9.129720
221  2 -0.7916  6.225340 12.883400  9.045190
222  2 -0.9499  8.233820 16.672100  9.071860
223  2 -0.8014  2.599380 19.067300  9.211970
224  2 -0.8404  4.085850  2.023950  9.149670
225  2 -0.9924  6.491400  5.585290  9.042860
226  2 -0.7292  8.656720  9.520160  9.937660
227  2 -0.8172 10.171000 13.150000  9.027290
228  2 -0.9056 12.705800 16.928400  9.590670
229  2 -0.8808  6.219050 20.395700  8.645640
230  2 -0.8680  9.027480  1.538830  8.589870
231  2 -0.7776 10.688400  4.824050  9.361340
232  2 -0.8454 12.431200  8.867080  9.476090
233  2 -0.8975 14.185500 12.774600  9.448010
234  2 -0.8754 16.532300 16.437700  9.523290
235  2 -0.8295 10.014600 19.584900  9.228760
236  2 -0.8140 12.419700  1.540650  8.953990
237  2 -0.8607 14.693600  5.536390  8.971660
238  2 -0.7847  0.308601  8.813420  9.256660
239  2 -0.8581 14.756800 20.103100  8.872000
240  2 -0.8918  0.184000  2.625610  9.059060
241  2 -0.3439 16.202800 14.378500  6.138150
242  2 -0.3216  2.393130 17.158400  5.464140
243  2 -0.3236  0.046036  7.492550  5.963870
244  2 -0.3699  1.709040 10.897800  6.114360
245  2 -0.2273  4.000900 13.953900  5.340960
246  2 -0.4045  6.197650 17.277000  5.546540
247  2 -0.5324  0.589922 21.128300  5.398340
248  2 -0.4631  2.961010  3.810570  5.825790
249  2 -0.3399  4.259080  7.205290  5.584690
250  2 -0.4425  6.291390 10.252500  5.874280
251  2 -0.2975  8.457660 13.809200  5.415410
252  2 -0.4166 10.234100 18.081800  5.425700
253  2 -0.3999  4.249970 21.579500  5.802560
254  2 -0.3925  6.521440  3.308430  5.545620
255  2 -0.4280  8.694560  6.679060  5.599800
256  2 -0.3708 10.249700 10.365400  5.898960
257  2 -0.3650 12.210100 14.782700  6.425670
258  2 -0.2390 14.733900 17.863600  5.530720
259  2 -0.3056  8.101090 21.407600  5.151900
260  2 -0.2031 10.963100  2.854320  5.250680
261  2 -0.3814 12.231100  5.875000  6.055840
262  2 -0.3201 14.220300 10.299100  5.978090
263  2 -0.3984 12.499800 21.187600  5.648030
264  2 -0.3713 14.325000  2.831310  5.165010
265  2 -0.3433  2.204080 13.167400  3.127220
266  2 -0.4399  3.786090 16.680300  2.589930
267  2 -0.3489  2.199260  5.800820  3.234550
268  2 -0.3671  4.044650  9.811080  3.398010
269  2 -0.3632  6.280230 12.698600  2.882710
270  2 -0.3725  8.319280 16.535100  3.360510
271  2 -0.4630  2.640720 19.912300  3.017310
272  2 -0.3542  3.917640  2.688790  3.112180
273  2 -0.4134  6.081070  5.734150  3.201480
274  2 -0.3956  8.433880  8.882550  3.269510
275  2 -0.3473 10.722800 13.072100  2.344030
276  2 -0.2792 12.885500 16.539100  3.355780
277  2 -0.3406  5.711710 20.381900  3.540450
278  2 -0.2210  8.036430  2.207050  2.773510
279  2 -0.4097 10.805100  5.243600  2.889250
280  2 -0.3443 12.797500  9.693010  3.020140
281  2 -0.3117 15.028800 13.298600  3.530100
282  2 -0.2608  0.241512 16.086300  3.146120
283  2 -0.3810  9.717020 20.255000  2.959210
284  2 -0.4343 12.542100  1.712140  2.616280
285  2 -0.2672 14.037400  6.594760  3.500440
286  2 -0.3828  0.094770  9.732800  3.085540
287  2 -0.3869 14.818200 20.127300  3.177110
288  2 -0.5390 16.488400  2.169750  3.139710
289  2 -0.8706  2.578320 15.010000 19.414200
290  2 -0.8388  3.745440 18.641900 19.220100
291  2 -0.8700  2.040290  8.010290 18.771900
292  2 -0.7581  4.109890 12.026200 18.431400
293  2 -0.7668  6.293910 15.331100 18.847700
294  2 -0.9377  8.127570 18.411600 18.344500
295  2 -0.9204  1.705330  0.109707 18.222900
296  2 -0.7781  4.245180  4.422090 18.955900
297  2 -0.7221  6.357460  7.655870 18.519200
298  2 -0.8651  7.513770 11.053300 18.774400
299  2 -0.7891 10.202200 14.924900 18.953100
300  2 -0.8430 12.483400 18.734200 19.489500
301  2 -0.7725  5.796300  0.793099 18.074500
302  2 -0.6843  7.734050  3.450650 18.659200
303  2 -0.7707 10.565000  7.355600 18.592200
304  2 -0.7556 12.594200 11.012100 18.690000
305  2 -0.8176 14.622600 15.252700 19.068300
306  2 -0.8463 16.552700 18.959500 18.985100
307  2 -0.9575 10.492500  0.348727 18.522000
308  2 -0.8121 12.450000  4.035470 18.583400
309  2 -0.8843 14.835800  7.847510 18.426900
310  2 -0.8433 16.251600 11.025300 18.866400
311  2 -0.7828 14.580800  0.141332 18.525400
312  2 -0.9629  0.520797  3.839200 18.040100
313  2 -0.4898  1.881660 13.181200 15.957000
314  2 -0.3738  4.454730 16.518100 15.149900
315  2 -0.3794  1.352050  4.977920 14.982600
316  2 -0.5506  4.457960  8.645180 15.423700
317  2 -0.3782  6.075760 13.222500 15.307200
318  2 -0.3956  8.705540 15.639900 15.441900
319  2 -0.3475  2.556810 19.741300 14.946300
320  2 -0.4003  4.185910  1.511820 14.698200
321  2 -0.3694  8.242920  5.542430 16.078700
322  2 -0.5564  8.385970 10.507600 15.358500
323  2 -0.3468 10.505600 13.112300 16.190000
324  2 -0.3528 12.427600 16.088400 16.123300
325  2 -0.2919  6.260240 19.903900 15.069400
326  2 -0.3158  8.459070  1.622850 15.204100
327  2 -0.2058 11.249900  5.552900 15.000800
328  2 -0.4967 12.475000  8.975510 15.519400
329  2 -0.3170 14.430900 12.766600 15.770200
330  2 -0.3601 16.388700 16.608000 15.218600
331  2 -0.3341 10.578000 19.889700 15.273400
332  2 -0.3557 13.108800  1.607990 15.276300
333  2 -0.3726 14.606700  4.820000 15.209800
334  2 -0.3799  0.131470  9.006390 15.407800
335  2 -0.3884 14.438800 20.014600 15.162600
336  2 -0.3710  0.455575  1.533120 14.949500
337  2 -0.3683  2.469850 14.612500 12.804100
338  2 -0.2707  4.856130 18.263700 12.247900
339  2 -0.3295  1.929710  6.858530 12.536000
340  2 -0.4419  4.416630 11.487800 12.448800
341  2 -0.3367  6.457610 15.280400 12.190500
342  2 -0.3204  8.387860 18.999300 12.760700
343  2 -0.3615  2.348470  0.393125 12.166800
344  2 -0.3404  4.352400  4.609630 12.576400
345  2 -0.5924  6.670120  7.396400 12.606100
346  2 -0.2844  8.686000 12.266600 13.261600
347  2 -0.4061 10.846400 15.207600 12.579600
348  2 -0.3754 12.423300 18.699200 12.652700
349  2 -0.4668  6.485190  1.164580 11.864100
350  2 -0.3960  8.546160  4.178040 12.439400
351  2 -0.5346 10.582300  7.762130 12.587900
352  2 -0.3614 12.853100 11.937900 13.178300
353  2 -0.3415 14.756800 15.196900 13.032900
354  2 -0.3348  0.039601 18.427300 12.525600
355  2 -0.3925 10.491900  0.171926 12.430200
356  2 -0.2912 12.681200  3.539650 12.482800
357  2 -0.4321 14.984800  7.087490 12.865400
358  2 -0.4233 16.634600 11.561500 12.794000
359  2 -0.3990 14.699900  0.416654 11.858200
360  2 -0.2804 16.331900  3.605410 12.549800

