Generated by pymatgen.io.lammps.data.LammpsData

504  atoms

  2  atom types

0.000000 17.774667  xlo xhi
0.000000 21.986255  ylo yhi
0.000000 41.650458  zlo zhi

Masses

1  208.9804
2   78.9600

Atoms

1    1  0.8696 17.697700 14.679400 12.021800
2    1  0.8147  1.999640 18.379200 12.335800
3    1  0.8201 17.898700  7.284470 11.896200
4    1  0.8267  2.099640 10.900500 12.045100
5    1  0.8841  4.248650 14.665700 12.324900
6    1  0.8528  6.580560 18.287700 12.330500
7    1  0.8745 -0.163092 21.858600 12.172000
8    1  0.8439  1.958020  3.576730 12.286900
9    1  0.8568  4.324290  7.283030 11.787600
10   1  0.8364  6.555410 10.926500 12.351000
11   1  0.8316  8.500060 14.718700 11.989600
12   1  0.8037 10.944800 18.291900 12.112600
13   1  0.8615  4.230610  0.001190 12.196400
14   1  0.8500  6.390610  3.554050 11.934000
15   1  0.7886  8.785720  7.341500 11.939000
16   1  0.8139 10.812800 10.851200 12.102800
17   1  0.8743 13.258400 14.533400 12.215400
18   1  0.8557 15.443800 18.085000 12.037400
19   1  0.8802  8.647010 21.951800 12.287200
20   1  0.8806 10.925200  3.605870 12.149000
21   1  0.8802 13.220400  7.355570 11.980900
22   1  0.8249 15.400100 10.835800 11.836400
23   1  0.8356 13.052100 21.861400 12.187500
24   1  0.8348 15.182600  3.592150 12.310500
25   1  0.8294  2.215990 13.541100  1.609400
26   1  0.8788  4.132980 17.414400  1.569290
27   1  0.8423  2.156930  6.211160  1.325450
28   1  0.8889  4.488470  9.717730  1.431520
29   1  0.8590  6.442100 13.337500  1.657340
30   1  0.8020  8.358820 17.181500  1.661170
31   1  0.8585  1.977230 20.839000  1.629490
32   1  0.8418  4.167900  2.812530  1.500370
33   1  0.8453  6.403310  5.975860  1.533430
34   1  0.8345  8.772910  9.842040  1.581680
35   1  0.8333 10.735100 13.649000  1.524080
36   1  0.8899 13.269900 17.301300  1.392920
37   1  0.8357  6.613570 20.765000  1.482390
38   1  0.8596  8.902120  2.552390  1.387420
39   1  0.8378 10.997900  6.180360  1.271390
40   1  0.8228 13.145000 10.007200  1.651850
41   1  0.8906 15.303900 13.486700  1.432190
42   1  0.8254 17.302700 17.343200  1.805020
43   1  0.8329 10.806400 20.979400  1.301780
44   1  0.8434 12.975500  2.670270  1.416550
45   1  0.8545 15.382200  6.198490  1.433620
46   1  0.8417 17.605600  9.870170  1.438790
47   1  0.8603 15.394700 20.773700  1.410140
48   1  0.8487 17.287500  2.312270  1.370260
49   1  0.1701 -0.167383 15.232900  6.610080
50   1  0.1879  2.031190 17.396600  6.000720
51   1  0.1870 -0.064549  7.656830  6.501260
52   1  0.2051  2.155520  9.861330  5.935110
53   1  0.1913  4.121920 15.088300  6.576020
54   1  0.2332  6.325990 17.258100  5.801580
55   1  0.1866 17.613800  0.409100  6.720570
56   1  0.2112  1.979860  2.502390  6.057890
57   1  0.1953  4.139390  7.760100  6.549650
58   1  0.2704  6.559190  9.973300  5.630210
59   1  0.1683  8.771480 14.967500  6.443140
60   1  0.2287 10.857000 17.023900  5.785180
61   1  0.1692  4.462750  0.487373  6.713770
62   1  0.1911  6.614090  2.483630  5.942980
63   1  0.2013  8.693400  7.710550  6.409330
64   1  0.2168 11.132700  9.785850  5.788030
65   1  0.2155 13.159100 14.801600  6.716780
66   1  0.2147 15.307700 17.298900  5.844310
67   1  0.1794  8.582260  0.297289  6.686700
68   1  0.2264 10.919300  2.400230  5.857370
69   1  0.1763 13.111600  7.700950  6.786510
70   1  0.2541 15.350800  9.818900  5.599400
71   1  0.1858 13.071300  0.528701  6.890730
72   1  0.1853 15.439100  2.461340  6.221470
73   1  0.1781  1.792110 12.816000  6.906100
74   1  0.2157  4.212910 18.192900  7.638020
75   1  0.1897  2.116410  5.368540  6.674570
76   1  0.2238  4.406050 10.808200  7.600360
77   1  0.1923  6.542700 12.863500  7.023970
78   1  0.1796  8.666790 17.948400  7.571140
79   1  0.1754  2.052110 20.418000  6.934470
80   1  0.2244  4.377560  3.253790  7.801580
81   1  0.1639  6.422380  5.404200  6.705490
82   1  0.2108  8.752020 10.598600  7.486680
83   1  0.1788 11.033900 12.624900  6.634870
84   1  0.2077 13.059400 18.001000  7.559350
85   1  0.1802  6.476030 20.171700  6.884530
86   1  0.2385  8.816510  3.236990  7.949680
87   1  0.1902 10.901600  5.459550  6.821270
88   1  0.2031 13.436100 10.617600  7.641260
89   1  0.1845 15.636700 12.648000  6.760150
90   1  0.2092 -0.250246 18.043000  7.687050
91   1  0.1917 10.901200 20.088700  7.151490
92   1  0.1777 13.106900  3.388500  7.457610
93   1  0.1894 15.313500  5.481650  7.243310
94   1  0.1897 17.628000 10.471500  7.611290
95   1  0.1897 15.261800 20.094000  6.869000
96   1  0.2756 -0.066448  3.282790  8.075050
97   1  0.8512  1.887600 13.481400 26.260500
98   1  0.8711  4.070220 17.318600 26.088500
99   1  0.8350  1.930170  6.281950 25.954000
100  1  0.8829  4.093920 10.196800 26.251800
101  1  0.8383  6.272840 13.787700 26.135800
102  1  0.8264  8.626290 17.530600 26.083400
103  1  0.8167  1.907340 20.631700 25.919000
104  1  0.8038  4.359950  2.826110 26.028700
105  1  0.8253  6.327010  6.525220 25.915500
106  1  0.8251  8.559610 10.356100 26.145600
107  1  0.8188 10.797600 13.720900 26.140400
108  1  0.9002 13.006900 17.494000 26.265600
109  1  0.8470  6.548190 20.879300 25.953700
110  1  0.8421  8.709610  2.904380 25.986100
111  1  0.8777 10.853300  6.479320 26.035000
112  1  0.8453 13.083100  9.945560 25.936400
113  1  0.8852 15.216700 13.571800 25.908800
114  1  0.8181 -0.258671 17.157800 26.211100
115  1  0.8161 10.706100 20.916900 26.026800
116  1  0.8334 13.105900  2.706430 26.348500
117  1  0.8645 15.198200  6.279490 26.122700
118  1  0.8598 17.464800  9.976660 26.204600
119  1  0.8639 15.322900 21.036200 26.290700
120  1  0.8745 -0.518141  2.725590 25.986600
121  1  0.8835  1.857010 15.723400 15.264700
122  1  0.8324  4.368700 19.566300 15.271600
123  1  0.8711  2.044620  8.285200 15.233200
124  1  0.8384  4.410210 12.006500 15.170100
125  1  0.8060  6.250330 15.466500 15.600800
126  1  0.8055  8.563130 19.501100 15.784400
127  1  0.8367  2.098790  1.044490 15.300100
128  1  0.8678  4.014060  4.547650 15.410100
129  1  0.8698  6.449990  8.323560 15.151600
130  1  0.8695  8.889750 12.163100 15.341700
131  1  0.8523 10.818800 15.671200 15.123000
132  1  0.8354 13.126100 19.632400 15.257600
133  1  0.8846  6.533850  1.183730 15.150300
134  1  0.8335  8.639670  5.082360 15.173100
135  1  0.8659 10.968300  8.416640 15.216900
136  1  0.8292 13.308600 11.972800 14.943800
137  1  0.8345 15.173000 15.756000 15.277800
138  1  0.8494 -0.328532 19.410900 15.172000
139  1  0.8696 10.868800  1.244770 15.262500
140  1  0.8332 13.089300  4.616740 15.490300
141  1  0.8792 15.525500  8.311650 15.164300
142  1  0.8590 -0.018372 12.120400 15.123600
143  1  0.8564 15.278300  1.193520 15.438400
144  1  0.8648 -0.052084  4.870500 15.063600
145  1  0.2067  1.951920 12.606100 19.743800
146  1  0.1759  4.027200 17.707000 20.506600
147  1  0.2413  1.779370  5.332160 19.609500
148  1  0.1698  4.125480 10.481900 20.548800
149  1  0.2040  6.240180 12.481500 19.543200
150  1  0.1706  8.795190 17.794200 20.431300
151  1  0.1776  2.022630 19.938400 19.976200
152  1  0.1602  4.103260  3.078050 20.441800
153  1  0.2093  6.371850  5.147040 19.720400
154  1  0.1821  8.352850 10.222600 20.577100
155  1  0.2445 10.735100 12.291400 19.720300
156  1  0.1727 13.009500 17.594300 20.588800
157  1  0.2364  6.425260 19.942800 19.620600
158  1  0.1865  8.748070  3.216510 20.596600
159  1  0.1759 10.725600  5.375810 19.915400
160  1  0.1635 13.177200 10.478100 20.443300
161  1  0.2187 15.508900 12.389800 19.570300
162  1  0.1605 17.369100 17.743300 20.588300
163  1  0.1761 10.994900 19.789500 19.882600
164  1  0.1657 12.973800  3.260890 20.850700
165  1  0.2144 15.447700  5.017730 19.809100
166  1  0.1654 -0.166413 10.380100 20.559500
167  1  0.2014 15.175400 19.886600 19.795500
168  1  0.1795 -0.317325  2.995110 20.823000
169  1  0.1757  1.960030 15.589600 20.807600
170  1  0.2514  4.221780 20.796900 21.726600
171  1  0.1704  1.919480  8.213260 20.784200
172  1  0.2272  3.985460 13.428100 21.642000
173  1  0.1537  6.326890 15.503500 20.653600
174  1  0.1986  8.673240 20.826700 21.451400
175  1  0.1677  1.887850  0.860861 20.706900
176  1  0.1723  3.946100  5.941710 21.517300
177  1  0.1671  6.164590  8.084810 20.781900
178  1  0.2059  8.415620 13.143300 21.505000
179  1  0.1970 10.820500 15.330700 20.729700
180  1  0.2449 13.060100 20.523200 21.883900
181  1  0.1907  6.456960  1.035830 20.664300
182  1  0.2140  8.652650  6.072020 21.642800
183  1  0.1727 10.923200  8.256410 20.582600
184  1  0.1829 13.037600 13.267100 21.349000
185  1  0.1613 15.287800 15.497500 20.930200
186  1  0.2003 -0.309330 20.660800 21.569100
187  1  0.1759 11.082500  0.888021 20.912000
188  1  0.2020 13.197100  6.231610 21.489500
189  1  0.1644 15.191300  8.161880 20.470600
190  1  0.2162 -0.264108 13.348200 21.571300
191  1  0.1728 15.088700  0.842666 20.738700
192  1  0.2091 -0.331457  6.011360 21.604400
193  1  0.8747  2.029910 16.026700 40.144400
194  1  0.8552  4.172070 19.476900 39.918600
195  1  0.8518  2.071020  8.724880 40.006600
196  1  0.8586  4.328270 12.504500 40.246600
197  1  0.8656  6.500830 15.854000 40.054500
198  1  0.8614  8.733700 19.570300 40.250300
199  1  0.8308  1.986490  1.205430 39.987200
200  1  0.8580  4.415520  4.994000 39.918700
201  1  0.8350  6.452270  8.851940 39.747600
202  1  0.8490  8.581280 12.242700 40.046400
203  1  0.8682 10.776800 15.948400 39.996600
204  1  0.8706 13.130600 19.588800 39.839400
205  1  0.8349  6.355240  1.114830 39.925900
206  1  0.8291  8.934220  5.175750 39.745000
207  1  0.8402 10.929200  8.628150 40.178300
208  1  0.8621 13.110500 12.353400 40.039200
209  1  0.8567 15.387500 15.941000 39.942800
210  1  0.8523 17.502300 19.676200 40.124000
211  1  0.8112 10.974900  1.118960 39.768800
212  1  0.8509 13.229600  5.097830 39.777500
213  1  0.8531 15.272600  8.725510 39.978500
214  1  0.8345 17.672900 12.474000 40.165400
215  1  0.8373 15.458300  1.263760 39.914900
216  1  0.8550 17.405800  5.155690 40.013700
217  1  0.8493 -0.199836 14.776400 29.265000
218  1  0.8357  2.138100 18.282500 29.337800
219  1  0.8238 17.481900  7.405890 29.218400
220  1  0.8379  1.883980 11.164500 29.110100
221  1  0.8576  4.190690 14.834000 29.477200
222  1  0.8889  6.371050 18.536400 29.339100
223  1  0.8256 17.504100  0.439970 29.357700
224  1  0.8283  2.101080  3.785340 29.070900
225  1  0.8215  4.251600  7.720180 29.397100
226  1  0.8640  6.453720 11.225100 29.405900
227  1  0.8754  8.688540 15.067300 29.246500
228  1  0.8747 10.680100 18.696500 29.253200
229  1  0.8656  4.388620  0.251149 29.038500
230  1  0.8381  6.201240  3.925080 29.096000
231  1  0.8570  8.379680  7.779600 29.221900
232  1  0.8057 10.877300 11.327400 29.185300
233  1  0.8093 12.856500 14.935200 29.184500
234  1  0.8469 15.456900 18.266800 29.268600
235  1  0.8758  8.925000  0.317732 29.381400
236  1  0.8468 10.714300  3.857890 29.265500
237  1  0.8825 12.925900  7.604600 29.132600
238  1  0.8527 15.152500 11.264700 29.354200
239  1  0.8749 13.149800  0.162252 29.362400
240  1  0.7984 15.171800  3.779720 29.437100
241  1  0.1732  2.002000 15.264100 33.981500
242  1  0.1695  4.251440 20.235100 34.321000
243  1  0.1723  2.012780  7.679070 34.128500
244  1  0.1902  4.207890 13.002700 34.550500
245  1  0.1995  6.559860 15.015500 33.973500
246  1  0.1893  8.613840 20.344800 34.363800
247  1  0.2146  2.174260  0.506297 33.473100
248  1  0.1817  4.560270  5.823400 34.609200
249  1  0.2091  6.658400  8.007080 33.721400
250  1  0.1804  8.860450 12.889200 34.606500
251  1  0.2161 10.836000 15.040300 33.634800
252  1  0.1915 13.114700 20.321900 34.732900
253  1  0.2062  6.454380  0.587891 33.777400
254  1  0.1771  8.714570  5.511210 34.456500
255  1  0.2634 10.916400  7.725390 33.468200
256  1  0.1610 13.026500 13.007100 34.343300
257  1  0.2080 15.404600 15.195600 33.634800
258  1  0.1675  0.030942 20.265600 34.435500
259  1  0.1882 11.028300  0.392423 33.984500
260  1  0.1702 13.131700  5.532730 34.425200
261  1  0.2140 15.576300  7.633660 33.598100
262  1  0.1794 17.458700 13.115500 34.460000
263  1  0.2042 15.364100  0.359630 33.781900
264  1  0.1669 17.568200  5.493910 34.527700
265  1  0.2196 17.486200 16.095000 35.636700
266  1  0.1616  2.040230 18.173900 34.808700
267  1  0.2278 17.562900  8.674820 35.612300
268  1  0.1992  1.876610 10.851100 34.746700
269  1  0.2325  4.271460 15.873500 35.659700
270  1  0.1904  6.460790 18.058500 34.825000
271  1  0.2100 17.746200  1.174140 35.551200
272  1  0.1705  1.917060  3.333010 34.576900
273  1  0.2173  4.266320  8.702580 35.553500
274  1  0.1844  6.525460 10.856400 34.887900
275  1  0.2133  8.784760 15.961100 35.541500
276  1  0.1821 10.977900 18.190500 34.668400
277  1  0.2040  4.137280  1.340590 35.442100
278  1  0.1826  6.368820  3.425110 34.658000
279  1  0.2271  8.770930  8.485070 35.572000
280  1  0.1937 10.994200 10.618400 34.794700
281  1  0.1932 13.057300 15.854000 35.496900
282  1  0.1823 15.402200 18.120300 34.533500
283  1  0.2447  8.739380  1.283050 35.619900
284  1  0.1653 10.967200  3.318780 34.458900
285  1  0.2137 13.259200  8.444820 35.412400
286  1  0.1708 15.335600 10.690100 34.676600
287  1  0.2235 13.113500  1.568180 35.562900
288  1  0.1542 15.440500  3.370130 34.472400
289  2 -0.7383 17.433700 14.843800 41.808500
290  2 -0.7617  2.021530 18.504500 41.658200
291  2 -0.7805 17.548700  7.482140 41.534100
292  2 -0.7534  2.186720 11.080700 -0.044267
293  2 -0.7745  4.218590 14.848100 -0.009249
294  2 -0.7989  6.433760 18.337500 41.493600
295  2 -0.8317 17.630100 22.072300 41.489200
296  2 -0.7489  2.108990  3.777140 -0.101707
297  2 -0.7713  4.379530  7.546040 -0.245876
298  2 -0.7973  6.554760 11.050600  0.062508
299  2 -0.7890  8.574110 14.900600 41.650900
300  2 -0.7466 10.990100 18.396800 -0.190272
301  2 -0.7378  4.277380 22.033900 -0.114897
302  2 -0.7358  6.425920  3.771220 41.471400
303  2 -0.7466  8.460640  7.352360 41.504100
304  2 -0.7733 10.794800 11.118400  0.013028
305  2 -0.7266 13.057700 14.845500 41.570300
306  2 -0.8211 15.240900 18.443500 41.600500
307  2 -0.8107  8.671520 22.109900 41.545600
308  2 -0.7758 10.985900  3.734950 -0.488044
309  2 -0.7948 13.148300  7.397220 -0.095139
310  2 -0.7831 15.244100 11.176400 -0.032626
311  2 -0.7547 13.219400 22.086900 41.414400
312  2 -0.7886 15.317800  3.784650 -0.070073
313  2 -0.6718  1.937860 16.250100  2.717560
314  2 -0.6805  4.264860 19.679400  3.064720
315  2 -0.6450  2.121230  8.554620  2.694630
316  2 -0.7050  4.325080 12.079400  2.838340
317  2 -0.7145  6.181090 16.010100  3.021510
318  2 -0.6868  8.625570 19.851600  3.066000
319  2 -0.6332  1.904040  1.523200  2.938380
320  2 -0.6894  4.257300  5.095920  3.113670
321  2 -0.6719  6.444290  8.495480  3.084320
322  2 -0.7366  8.555620 12.291600  2.907480
323  2 -0.6543 11.025700 16.163700  2.821210
324  2 -0.6246 13.147200 19.720000  2.995490
325  2 -0.6242  6.478200  1.501160  2.682010
326  2 -0.6418  9.020080  4.941440  2.862350
327  2 -0.6846 10.947400  8.429180  2.958130
328  2 -0.6816 13.209200 12.403300  2.991630
329  2 -0.6861 15.235400 15.848600  2.850190
330  2 -0.7141 -0.199268 19.972400  3.029820
331  2 -0.6853 10.861100  1.412460  2.772060
332  2 -0.6337 13.182300  5.092290  2.973230
333  2 -0.6763 15.428600  8.758190  2.848900
334  2 -0.6526 -0.232664 12.306500  3.044740
335  2 -0.6452 15.209300  1.204920  2.716550
336  2 -0.5990 -0.173566  5.082850  3.065420
337  2 -0.6526  2.206610 15.846500 10.913500
338  2 -0.6340  4.338230 19.494000 10.881700
339  2 -0.7205  2.217210  8.558160 10.453100
340  2 -0.6114  4.418160 12.449500 10.571700
341  2 -0.6395  6.370090 15.820900 10.693800
342  2 -0.6609  8.757600 19.586600 10.793100
343  2 -0.6525  2.075190  1.223300 10.676900
344  2 -0.6757  4.051420  4.569440 10.719700
345  2 -0.6765  6.560500  8.678840 10.517400
346  2 -0.6175  8.762420 12.095300 10.575200
347  2 -0.6150 11.113600 15.580100 10.561500
348  2 -0.6553 13.396600 19.582400 10.585300
349  2 -0.6580  6.488240  0.990540 10.632000
350  2 -0.6955  8.699610  4.780780 10.766700
351  2 -0.6975 11.079200  8.387350 10.577800
352  2 -0.6341 13.161000 12.279600 10.604000
353  2 -0.6430 15.379300 15.630700 10.510100
354  2 -0.6762 17.547200 19.314400 10.721500
355  2 -0.6547 10.711000  1.245440 10.694100
356  2 -0.6626 13.162100  4.818590 10.785900
357  2 -0.7130 15.508400  8.432620 10.574200
358  2 -0.6673 17.710300 12.197200 10.773200
359  2 -0.6174 15.535000  1.012610 10.557700
360  2 -0.6891 -0.040078  4.743440 10.796200
361  2 -0.7752  1.999990 13.421400 13.766400
362  2 -0.7474  4.353690 16.997800 13.822600
363  2 -0.8101  2.155630  6.044060 13.823000
364  2 -0.7862  4.402470  9.538770 13.535300
365  2 -0.8170  6.475730 13.359300 13.822100
366  2 -0.7425  8.610750 16.934900 13.880200
367  2 -0.8204  1.992900 20.854000 13.717600
368  2 -0.8049  4.259290  2.259870 13.676000
369  2 -0.7307  6.152430  5.948280 13.596300
370  2 -0.7850  8.768740  9.815410 13.775500
371  2 -0.7648 10.966000 13.388300 13.497300
372  2 -0.7691 13.164700 17.100900 13.634200
373  2 -0.7902  6.665410 20.721500 13.869700
374  2 -0.7455  8.706380  2.558010 13.636500
375  2 -0.7552 11.100000  6.064910 13.674400
376  2 -0.7868 13.381500  9.445800 13.734400
377  2 -0.7692 15.411800 13.311000 13.500200
378  2 -0.8032 -0.483227 16.959800 13.691400
379  2 -0.7685 10.816100 20.581000 13.700100
380  2 -0.8107 12.935200  2.264340 13.663100
381  2 -0.7407 15.397800  5.877140 13.798500
382  2 -0.7654 -0.015782  9.660910 13.648700
383  2 -0.7555 15.389100 20.835000 13.720500
384  2 -0.7623 -0.402868  2.191400 13.835400
385  2 -0.6350 -0.202553 14.537600 16.695800
386  2 -0.6409  1.770410 18.108600 16.435900
387  2 -0.6565 17.669700  7.195350 16.660500
388  2 -0.6383  2.236130 10.853700 16.619800
389  2 -0.6944  3.925390 14.256200 16.643000
390  2 -0.7090  6.264460 18.327900 16.949600
391  2 -0.6226 17.571100 -0.080697 16.869500
392  2 -0.6784  1.808820  3.759870 16.866600
393  2 -0.6293  4.258900  6.975220 16.785300
394  2 -0.6380  6.704080 10.688000 16.497800
395  2 -0.6815  8.910930 14.434100 16.881400
396  2 -0.6352 11.152300 18.134900 16.694000
397  2 -0.6948  4.404470 -0.016655 16.533400
398  2 -0.6211  6.512490  3.550680 16.542600
399  2 -0.6510  8.667740  7.560710 16.637500
400  2 -0.6256 10.861700 10.826900 16.604500
401  2 -0.6257 12.993500 14.209800 16.680700
402  2 -0.6446 15.260400 18.302300 16.644000
403  2 -0.6438  8.692390  0.194575 16.926300
404  2 -0.6506 10.543300  3.547380 16.592200
405  2 -0.6325 13.146400  7.146910 16.684000
406  2 -0.6313 15.448100 10.899900 16.538400
407  2 -0.6918 12.986500  0.162606 16.738700
408  2 -0.6470 15.447400  3.714960 16.762500
409  2 -0.6382 17.600500 14.505900 24.660500
410  2 -0.6877  2.048560 18.338800 24.534700
411  2 -0.6327 17.350200  7.564740 24.659400
412  2 -0.5974  2.031780 11.087700 24.541700
413  2 -0.6146  3.841520 14.816900 24.737200
414  2 -0.6579  6.250270 18.590000 24.457700
415  2 -0.6424 -0.401789  0.190020 24.771500
416  2 -0.6706  1.823150  3.805210 24.673800
417  2 -0.6259  4.050310  7.923770 24.747600
418  2 -0.6231  6.095320 11.332900 24.583600
419  2 -0.6245  8.687220 15.080000 24.673000
420  2 -0.6534 11.058400 18.426700 24.631500
421  2 -0.6269  4.212780  0.153226 24.510200
422  2 -0.6887  6.509840  3.838470 24.471600
423  2 -0.6329  8.677780  7.647210 24.618500
424  2 -0.6586 10.554500 11.348100 24.429800
425  2 -0.6056 13.063900 15.181500 24.760900
426  2 -0.6355 15.174300 18.747800 24.785700
427  2 -0.6657  8.690770  0.191501 24.565700
428  2 -0.6567 10.918700  4.001710 24.712900
429  2 -0.6659 13.017000  7.578130 24.623400
430  2 -0.6648 15.288600 11.214600 24.535200
431  2 -0.6204 13.301400  0.214714 24.745300
432  2 -0.6651 15.196800  3.883630 24.652100
433  2 -0.8079  2.034360 16.064900 27.728200
434  2 -0.7634  4.391600 19.627600 27.630200
435  2 -0.7785  1.937570  8.836250 27.538000
436  2 -0.8105  4.218030 12.604000 27.697600
437  2 -0.7601  6.327550 16.153900 27.799800
438  2 -0.8207  8.620780 19.805700 27.663400
439  2 -0.7043  1.920880  1.299230 27.684700
440  2 -0.8113  4.323820  5.219790 27.521800
441  2 -0.8030  6.386660  8.921800 27.686500
442  2 -0.8022  8.525260 12.660100 27.712000
443  2 -0.8055 10.844600 16.394000 27.718200
444  2 -0.7554 12.947300 19.729000 27.842100
445  2 -0.7341  6.627070  1.513460 27.528500
446  2 -0.7379  8.535470  5.427820 27.700400
447  2 -0.7727 10.866200  8.871840 27.580500
448  2 -0.7949 12.980900 12.516500 27.526200
449  2 -0.7516 15.340200 15.877500 27.424000
450  2 -0.7400 -0.199111 19.532200 27.825200
451  2 -0.7752 10.814200  1.459460 27.721400
452  2 -0.7841 12.926100  5.362200 27.740000
453  2 -0.7574 15.160300  8.856630 27.705100
454  2 -0.7874 -0.444260 12.369600 27.662700
455  2 -0.8254 15.215500  1.411860 27.753600
456  2 -0.7530 -0.381920  5.139730 27.415300
457  2 -0.6625  1.876100 13.388600 30.648900
458  2 -0.6928  4.483510 17.246600 30.862000
459  2 -0.6438  1.980780  6.198550 30.449500
460  2 -0.6521  4.176310 10.112100 30.871600
461  2 -0.6174  6.447270 13.636300 30.729900
462  2 -0.6740  8.587820 17.582200 30.749100
463  2 -0.6184  2.068380 20.892900 30.504500
464  2 -0.6677  4.331900  2.374670 30.608900
465  2 -0.6631  6.387720  6.408900 30.747400
466  2 -0.6695  8.501990 10.122200 30.850100
467  2 -0.6914 10.508100 13.896100 30.694800
468  2 -0.6265 13.266100 17.452100 30.717800
469  2 -0.6362  6.507420 21.214000 30.517200
470  2 -0.6342  8.584030  2.672620 30.719300
471  2 -0.6329 10.750000  6.476820 30.718500
472  2 -0.6764 13.021700 10.068500 30.788300
473  2 -0.6584 15.236200 13.727800 30.494100
474  2 -0.6882 17.564000 17.102100 30.717100
475  2 -0.6766 11.098800 21.106100 30.711500
476  2 -0.6917 12.830000  2.534050 30.743500
477  2 -0.6681 15.079600  6.383520 30.572300
478  2 -0.6245 17.679400 10.002000 30.711700
479  2 -0.6393 15.359800 20.957400 30.823700
480  2 -0.7018 17.657400  2.892710 30.562300
481  2 -0.6468  2.036040 13.579400 38.768700
482  2 -0.6569  4.103430 17.133800 38.568200
483  2 -0.6223  1.981880  6.199840 38.624300
484  2 -0.6709  4.069450  9.955620 38.547000
485  2 -0.7042  6.380930 13.498500 38.655800
486  2 -0.6343  8.633640 17.300100 38.597000
487  2 -0.6560  1.921000 20.736400 38.456800
488  2 -0.6461  4.237830  2.608710 38.423400
489  2 -0.6638  6.528460  6.279070 38.372300
490  2 -0.6733  8.778730 10.012600 38.417700
491  2 -0.6475 10.909700 13.494000 38.615300
492  2 -0.6604 13.164600 17.091400 38.697700
493  2 -0.6242  6.524470 20.628300 38.447100
494  2 -0.6466  8.670500  2.481960 38.309500
495  2 -0.6835 11.175400  6.455740 38.401500
496  2 -0.6217 12.896500  9.891910 38.705400
497  2 -0.6526 15.454100 13.465500 38.521100
498  2 -0.6623 17.603600 17.114000 38.775400
499  2 -0.6568 10.797300 20.501700 38.439800
500  2 -0.6722 13.175500  2.522250 38.499100
501  2 -0.6772 15.464000  6.361400 38.439100
502  2 -0.6395 17.397700  9.963780 38.627100
503  2 -0.6725 15.264200 20.774100 38.445300
504  2 -0.6413 -0.187584  2.631110 38.547500

