Generated by pymatgen.io.lammps.data.LammpsData

360  atoms

  2  atom types

0.000000 16.871067  xlo xhi
0.000000 22.058404  ylo yhi
0.000000 29.928687  zlo zhi

Masses

1  208.9804
2   78.9600

Atoms

1    1  0.7498  1.705020 13.441100 21.829000
2    1  0.7180  4.024040 17.169300 21.346200
3    1  0.7359  1.753930  5.855150 20.907600
4    1  0.7134  4.178270  9.694240 20.725400
5    1  0.7308  6.351560 13.403100 21.436200
6    1  0.7447  8.241200 16.978600 20.956000
7    1  0.7669  1.686150 20.830400 21.000800
8    1  0.7883  3.885100  2.363460 20.870700
9    1  0.7206  6.133220  6.108970 20.989300
10   1  0.7128  8.259960  9.858500 21.160500
11   1  0.7338 10.183900 13.129300 20.765900
12   1  0.7122 12.304900 17.021200 21.076300
13   1  0.7494  6.250220 20.689100 21.151800
14   1  0.7742  7.971870  2.428290 20.909900
15   1  0.7703 10.269200  5.943970 21.031300
16   1  0.7416 12.416000  9.591080 21.021200
17   1  0.7283 14.490700 13.309800 21.388500
18   1  0.7383 16.476700 17.236900 21.351200
19   1  0.7824 10.272600 20.786400 20.745300
20   1  0.7459 12.399500  2.063820 20.811400
21   1  0.7884 14.514400  5.939040 20.942900
22   1  0.7592 16.620000  9.407240 20.962900
23   1  0.7829 14.209700 20.762700 20.974400
24   1  0.7306 -0.272388  2.167740 21.050300
25   1  0.7803  1.960550 13.137200 28.768300
26   1  0.7550  4.386030 16.643100 28.207500
27   1  0.7751  2.429370  5.963200 28.685800
28   1  0.7889  4.258450  9.503590 28.892500
29   1  0.7506  6.271130 13.273200 28.627100
30   1  0.7869  8.390800 17.067700 28.367300
31   1  0.7956  2.137800 20.706900 28.655000
32   1  0.7781  4.165510  2.190250 28.767800
33   1  0.7719  6.543840  6.046460 28.766200
34   1  0.7317  8.284880  9.635510 28.532700
35   1  0.7298 10.643700 13.280600 28.535700
36   1  0.7119 12.485200 16.920800 28.603500
37   1  0.7286  6.542970 20.691500 28.622000
38   1  0.7790  8.491310  2.149760 28.243900
39   1  0.8037 10.540300  6.007050 28.568900
40   1  0.7430 12.821500  9.663920 28.523300
41   1  0.7207 14.601200 13.234000 28.513300
42   1  0.7523  0.006243 17.120500 28.134100
43   1  0.7155 10.401600 20.766100 28.122600
44   1  0.7302 12.300600  2.057710 28.430900
45   1  0.7315 14.655300  6.060980 28.523300
46   1  0.7672 16.989100  9.663100 28.782500
47   1  0.7395 14.955300 20.940400 28.520600
48   1  0.7320 17.133700  2.372610 28.630100
49   1  0.8051  2.150430 15.887500  1.865140
50   1  0.7839  4.330600 19.505600  1.756170
51   1  0.8345  2.210740  8.391760  2.321590
52   1  0.7864  4.066740 12.072300  2.031790
53   1  0.7984  6.480060 15.923200  1.972680
54   1  0.7862  8.319910 19.663200  2.065790
55   1  0.8067  1.930650  1.186480  2.001780
56   1  0.7765  4.427100  4.661970  2.080990
57   1  0.8136  6.383720  8.336000  2.169830
58   1  0.7981  8.606200 12.027400  1.907930
59   1  0.7746 10.400400 15.856100  1.844400
60   1  0.7854 12.789300 19.596400  2.002750
61   1  0.7898  6.266770  1.107310  1.883170
62   1  0.8104  8.150170  4.596080  2.028260
63   1  0.8044 10.737500  8.329470  1.869920
64   1  0.7558 12.722800 12.091500  2.059980
65   1  0.7665 14.860600 15.584000  1.866460
66   1  0.8225 16.954000 19.424800  2.164700
67   1  0.8232 10.658400  1.116690  2.002920
68   1  0.7852 12.497300  4.559060  1.815680
69   1  0.8017 14.957100  8.116780  2.048540
70   1  0.7920 -0.193782 11.852500  2.346490
71   1  0.8064 14.859300  0.812450  1.924990
72   1  0.7763 -0.344314  4.541970  1.946360
73   1  0.7979  2.127360 15.758000  8.144780
74   1  0.7538  4.059840 19.284800  8.280550
75   1  0.7762  2.119430  8.266820  8.281400
76   1  0.8280  3.937350 12.231700  8.062830
77   1  0.8102  6.206000 15.783500  8.073160
78   1  0.7477  8.395710 19.400000  8.117400
79   1  0.7662  1.966630  1.066450  8.287780
80   1  0.7564  4.143040  4.554720  8.203690
81   1  0.8014  6.348070  8.429610  8.398390
82   1  0.8196  8.388650 12.226700  8.103030
83   1  0.8123 10.440800 15.628000  8.136350
84   1  0.7833 12.501900 19.349200  8.171990
85   1  0.7770  6.085010  1.044090  8.126550
86   1  0.7807  8.298600  4.604790  8.030940
87   1  0.7796 10.653500  8.602220  8.412040
88   1  0.7888 12.491100 11.969000  8.331990
89   1  0.7679 14.670800 15.663600  8.027530
90   1  0.7809 -0.268248 19.532500  8.241530
91   1  0.7944 10.491200  0.944634  7.975930
92   1  0.7530 12.650500  4.614190  8.053350
93   1  0.8441 14.831000  8.200340  8.080670
94   1  0.8286 16.685600 12.160400  8.199520
95   1  0.7653 14.636000  0.979985  8.204960
96   1  0.8090 -0.071230  4.736240  8.191000
97   1  0.7544 16.704400 14.588300 11.384000
98   1  0.7992  2.081950 18.293700 11.816800
99   1  0.7647 16.838500  7.176520 11.681700
100  1  0.7754  2.066720 10.733200 11.617900
101  1  0.8188  3.867350 14.496300 11.775900
102  1  0.7508  6.191460 18.176500 11.696000
103  1  0.7883 -0.255613 21.653800 11.692000
104  1  0.7871  2.078110  3.660680 11.734400
105  1  0.7569  4.288630  7.269550 11.622000
106  1  0.7969  6.194270 10.863400 11.433900
107  1  0.8058  8.057590 14.404800 11.610100
108  1  0.7384 10.230500 18.148500 11.564900
109  1  0.7796  4.184740 -0.340926 11.610100
110  1  0.7808  6.391490  3.348500 11.490000
111  1  0.7674  8.647910  7.291790 11.473600
112  1  0.7431 10.351600 10.971500 11.538600
113  1  0.7397 12.580900 14.678500 11.458300
114  1  0.7715 14.542100 17.885200 11.440900
115  1  0.7907  8.415890 21.847800 11.666400
116  1  0.7871 10.378500  3.396290 11.599200
117  1  0.7558 12.738400  7.318790 11.456100
118  1  0.7236 14.780900 10.790400 11.583600
119  1  0.8030 12.484400 21.963400 11.424800
120  1  0.7815 14.619100  3.653940 11.764800
121  1  0.8191 16.698600 14.546100 17.951100
122  1  0.8162  1.941060 18.127600 17.913400
123  1  0.8252 16.752300  7.123990 17.652700
124  1  0.8180  2.219600 11.004500 17.700000
125  1  0.7902  3.840310 14.801600 17.816000
126  1  0.8069  6.269590 18.287300 17.632000
127  1  0.8008 -0.221699 21.942900 17.607800
128  1  0.8059  1.989180  3.572550 17.404300
129  1  0.8213  4.179970  7.175390 17.791000
130  1  0.8105  6.235180 10.623100 17.627000
131  1  0.8377  8.003780 14.510100 17.494100
132  1  0.7742 10.372100 18.125000 17.582900
133  1  0.8341  4.018720 -0.100605 17.701300
134  1  0.8174  6.004550  3.468990 17.552700
135  1  0.8201  8.450410  7.018400 17.604100
136  1  0.7875 10.636700 10.858500 17.821200
137  1  0.8013 12.307500 14.497600 17.779800
138  1  0.8363 14.555400 18.034900 17.696500
139  1  0.7802  8.059770 21.953700 17.648400
140  1  0.8100 10.470600  3.390860 17.725100
141  1  0.8070 12.585500  7.436980 17.567700
142  1  0.8337 14.734200 10.991900 17.626900
143  1  0.8133 12.565300 21.849000 17.395700
144  1  0.7945 14.435300  3.644560 17.516000
145  2 -0.8482 16.991400 14.486400  0.317429
146  2 -0.8429  2.175510 18.177000  0.276398
147  2 -0.8482 17.140200  7.092170  0.513434
148  2 -0.9020  2.190920 10.765700  0.558751
149  2 -0.8750  4.278890 14.459500  0.296422
150  2 -0.8949  6.335770 18.156700 -0.037985
151  2 -0.9317 16.896900 -0.248038  0.360949
152  2 -0.9201  2.149170  3.532320  0.426122
153  2 -0.9030  4.266500  7.297900  0.602307
154  2 -0.8941  6.399130 10.618000  0.599521
155  2 -0.8873  8.415080 14.742600  0.199306
156  2 -0.8518 10.519100 18.347800  0.251646
157  2 -0.9272  4.080520 21.922900  0.190973
158  2 -0.9077  6.510860  3.427320  0.154298
159  2 -0.9000  8.569930  6.896960  0.368988
160  2 -0.8942 10.693100 10.803500  0.300287
161  2 -0.9383 12.698600 14.526800  0.246039
162  2 -0.8240 14.923600 18.328100  0.198213
163  2 -0.8982  8.502570 21.856400  0.602914
164  2 -0.8630 10.385900  3.442470  0.283194
165  2 -0.9135 12.609500  7.054410  0.264403
166  2 -0.9028 14.856200 10.573700  0.498210
167  2 -0.8998 12.681800 -0.116511  0.266323
168  2 -0.8647 14.634500  3.373700  0.035334
169  2 -0.3713  2.166120 15.166000 26.744100
170  2 -0.2547  4.248010 19.599000 26.544700
171  2 -0.3912  2.426310  8.278380 27.310800
172  2 -0.2511  4.119920 11.951600 26.659700
173  2 -0.3240  6.512240 15.448200 26.542000
174  2 -0.3788  8.377140 19.512000 26.659700
175  2 -0.3386  2.347390  1.110400 26.932400
176  2 -0.2968  4.498110  4.660030 26.923500
177  2 -0.3656  6.059480  8.510210 27.025700
178  2 -0.3741  8.090470 12.196700 26.960000
179  2 -0.3129 10.602500 15.823300 26.675500
180  2 -0.2316 13.276600 19.275800 26.282700
181  2 -0.3420  6.346980  1.102800 26.886700
182  2 -0.3578  8.441110  4.936390 26.990800
183  2 -0.3179 10.764800  8.607810 26.780300
184  2 -0.2943 12.561300 11.956800 26.504200
185  2 -0.2866 14.891300 15.857500 26.388900
186  2 -0.3335 17.372100 19.861000 26.688000
187  2 -0.3937 10.375800  0.770416 26.477100
188  2 -0.2854 12.223600  4.933840 26.631100
189  2 -0.2829 14.643000  8.520270 26.571800
190  2 -0.4144 -0.140799 11.997700 27.148200
191  2 -0.2966 14.984100  1.358410 26.678600
192  2 -0.2933 16.692600  5.122040 26.737400
193  2 -0.3543 -0.588295 14.455100 23.343900
194  2 -0.3143  1.828240 18.896000 23.138700
195  2 -0.3091 16.262800  6.991590 22.885600
196  2 -0.3722  1.661770 10.506000 22.556600
197  2 -0.3110  3.949960 14.841200 23.491700
198  2 -0.2395  6.564150 18.366200 23.434600
199  2 -0.4052 -0.639941 -0.223231 22.528900
200  2 -0.3478  1.865960  3.490060 22.741000
201  2 -0.3110  4.340480  7.096100 22.739500
202  2 -0.3504  5.859740 10.909000 22.866100
203  2 -0.3126  8.468240 14.909900 22.962700
204  2 -0.2836 10.309200 18.224900 22.864700
205  2 -0.2621  3.943090 -0.083516 22.915400
206  2 -0.3052  5.827960  3.725200 22.767900
207  2 -0.3010  8.527450  6.935330 22.978300
208  2 -0.4297 10.348400 11.072100 22.596500
209  2 -0.2723 12.259800 14.837600 23.080500
210  2 -0.3322 14.488900 18.438300 22.938000
211  2 -0.3714  8.177090  0.040335 22.537300
212  2 -0.2862 10.168000  3.304010 22.750000
213  2 -0.3603 12.409400  6.786500 22.550500
214  2 -0.2304 14.624900 10.658400 23.360500
215  2 -0.3800 11.932700 21.663900 22.543900
216  2 -0.3176 14.257400  3.298750 22.715600
217  2 -0.8647  2.049810 13.357800  9.884350
218  2 -0.8678  4.099880 16.797800  9.966060
219  2 -0.8804  2.027890  5.935010  9.923160
220  2 -0.8651  4.226770  9.795140  9.845880
221  2 -0.8192  6.058320 13.185800  9.867350
222  2 -0.8555  8.288010 16.508300  9.873990
223  2 -0.8769  1.946370 20.628000 10.072200
224  2 -0.8709  4.278210  2.242880 10.053300
225  2 -0.8543  6.336030  6.063630  9.885170
226  2 -0.9049  8.394760  9.738790  9.766490
227  2 -0.8966 10.350400 13.299300  9.698430
228  2 -0.9103 12.516700 16.951800  9.636210
229  2 -0.8726  6.200490 20.489900  9.857870
230  2 -0.8576  8.397390  2.156990  9.890980
231  2 -0.8486 10.470400  5.906630  9.825010
232  2 -0.9028 12.809100  9.495300  9.644260
233  2 -0.9108 14.751000 13.256700  9.650320
234  2 -0.8622 -0.122097 16.976800  9.787110
235  2 -0.8775 10.295800 20.734600  9.772490
236  2 -0.8672 12.493100  2.178960  9.965640
237  2 -0.8847 14.834400  5.954940  9.986120
238  2 -0.8398 16.794000  9.601460  9.550440
239  2 -0.8752 14.498600 20.609900  9.885240
240  2 -0.8194 16.812800  2.421440  9.998970
241  2 -0.3251 17.018700 14.680000  6.285060
242  2 -0.3339  1.959290 18.221700  6.484010
243  2 -0.3385 16.747000  6.752580  6.385210
244  2 -0.3397  1.728900 10.728600  6.491570
245  2 -0.4026  4.092120 14.475500  6.506470
246  2 -0.3563  6.042300 18.260800  6.425700
247  2 -0.3466 -0.023425 22.061200  6.555120
248  2 -0.3419  1.832370  3.461210  6.553220
249  2 -0.3352  4.117810  7.080480  6.479580
250  2 -0.3359  6.233400 10.840900  6.634040
251  2 -0.3544  8.215800 14.717800  6.467810
252  2 -0.3538 10.220100 18.100400  6.329020
253  2 -0.3252  4.014600 22.133100  6.461710
254  2 -0.3886  6.239090  3.471440  6.512090
255  2 -0.2948  8.409120  7.221960  6.426820
256  2 -0.3591 10.557900 10.696000  6.551110
257  2 -0.3302 12.361000 14.286200  6.291200
258  2 -0.3295 14.884200 18.394100  6.351080
259  2 -0.2996  8.215600 22.075100  6.205610
260  2 -0.3647 10.513000  3.292810  6.388930
261  2 -0.3081 12.850800  7.138280  6.352500
262  2 -0.3224 14.845600 10.811500  6.628960
263  2 -0.3923 12.692900 21.656800  6.503000
264  2 -0.3356 14.784200  3.558450  6.384610
265  2 -0.3302  2.058170 13.294100  3.893120
266  2 -0.3891  4.341760 17.238200  3.426470
267  2 -0.2941  2.036620  5.727250  3.756760
268  2 -0.3435  4.321650  9.469550  3.924040
269  2 -0.2778  6.437680 13.237100  3.820370
270  2 -0.3476  8.401540 16.873500  3.745910
271  2 -0.3126  1.994410 20.863700  3.730550
272  2 -0.3595  4.434540  2.373770  3.667360
273  2 -0.3589  6.269750  5.777350  3.941590
274  2 -0.3434  8.629340  9.657110  3.576350
275  2 -0.3458 10.033600 13.267500  3.690800
276  2 -0.3453 12.852500 17.033700  3.607690
277  2 -0.3558  6.144720 20.876800  3.667030
278  2 -0.3301  8.513530  2.355730  3.732620
279  2 -0.2863 10.489800  5.896730  3.841630
280  2 -0.3260 13.232700  9.370080  3.673130
281  2 -0.3690 14.839700 13.173000  3.895620
282  2 -0.3231 -0.000644 17.048600  3.759010
283  2 -0.3038 10.484200 20.823000  3.930250
284  2 -0.3790 12.905900  2.127460  3.561250
285  2 -0.3701 14.569500  5.719990  3.640500
286  2 -0.3408 16.833300  9.605600  3.972610
287  2 -0.3636 14.997300 20.782600  3.735920
288  2 -0.3306 16.916100  2.107050  3.749150
289  2 -0.8678  1.868910 15.985000 19.787800
290  2 -0.8531  3.952780 19.594100 19.606300
291  2 -0.8659  1.890980  8.341740 19.278800
292  2 -0.8159  3.977160 12.318600 19.555600
293  2 -0.8599  6.065020 16.001100 19.454800
294  2 -0.9201  8.259280 19.514400 19.259500
295  2 -0.8885  1.957570  1.173760 19.265600
296  2 -0.8959  3.885980  4.651700 19.180200
297  2 -0.9454  6.209780  8.405220 19.160900
298  2 -0.8917  8.191830 12.202800 19.277000
299  2 -0.8958 10.030000 15.627200 19.299700
300  2 -0.9029 12.514200 19.462300 19.228200
301  2 -0.9081  5.829380  1.149690 19.295800
302  2 -0.8909  8.123020  4.550620 19.228600
303  2 -0.8971 10.333900  8.511930 19.416700
304  2 -0.9079 12.720300 12.175500 19.409300
305  2 -0.8742 14.642300 15.788400 19.429800
306  2 -0.8377 16.610900 19.445200 19.264700
307  2 -0.9026 10.233200  1.095030 19.248200
308  2 -0.8651 12.385500  4.902300 19.279200
309  2 -0.8988 14.582200  8.393970 19.350700
310  2 -0.8294 16.626000 12.021100 19.299400
311  2 -0.9060 14.435800  0.924788 19.102300
312  2 -0.8923 16.556400  4.795900 19.279600
313  2 -0.3900  2.143000 13.312400 16.223000
314  2 -0.3962  4.016770 17.314500 16.199600
315  2 -0.3601  2.062960  6.103390 15.970400
316  2 -0.3402  4.286580  9.443860 15.972600
317  2 -0.3350  5.973620 13.109100 16.021800
318  2 -0.3592  8.269020 16.863000 15.878200
319  2 -0.3202  2.218810 20.690600 15.974200
320  2 -0.3613  3.924800  2.117900 15.823700
321  2 -0.3527  6.181060  6.009480 16.052900
322  2 -0.3100  8.590120  9.758190 15.979500
323  2 -0.3301 10.419900 13.277800 16.077700
324  2 -0.3499 12.288200 16.673500 15.980200
325  2 -0.3471  6.082370 20.711900 15.921400
326  2 -0.3099  8.346340  2.310800 15.774400
327  2 -0.3706 10.296200  5.696830 16.122200
328  2 -0.4033 12.697700  9.889090 16.077400
329  2 -0.3260 14.712500 13.608800 16.131000
330  2 -0.3657 16.690800 16.958800 16.291900
331  2 -0.3316 10.456700 20.692200 15.802300
332  2 -0.3472 12.555400  2.437700 15.769700
333  2 -0.3637 14.562500  6.021190 15.907000
334  2 -0.3329 17.168700  9.525740 16.065800
335  2 -0.3475 14.719400 20.492900 15.982600
336  2 -0.3424 -0.581924  2.339020 15.780900
337  2 -0.3598  1.703310 15.939500 13.330600
338  2 -0.3619  4.236090 19.374300 13.423600
339  2 -0.3923  2.193640  8.523530 13.238400
340  2 -0.3725  4.134460 12.103300 13.214400
341  2 -0.3591  6.084120 15.660600 13.424900
342  2 -0.3474  8.265540 19.548400 13.468300
343  2 -0.3150  1.716320  1.002080 13.381800
344  2 -0.3132  4.147210  4.549380 13.495100
345  2 -0.3412  6.431560  8.386830 13.269500
346  2 -0.3202  8.179700 12.181100 13.443900
347  2 -0.3416 10.174000 15.769500 13.212500
348  2 -0.3460 12.591200 19.421800 13.118900
349  2 -0.3453  6.130270  0.992202 13.315900
350  2 -0.3098  8.186330  4.686780 13.369000
351  2 -0.4051 10.605300  8.609150 13.126400
352  2 -0.3219 12.309100 12.167000 13.328600
353  2 -0.3603 14.464400 15.568700 13.259800
354  2 -0.3498 -0.113849 19.112500 13.259800
355  2 -0.3505 10.337500  0.918263 13.349100
356  2 -0.3199 12.254500  4.723340 13.397700
357  2 -0.3638 14.724400  8.402840 13.426600
358  2 -0.3417  0.117824 12.013300 13.381100
359  2 -0.3391 14.603800  0.878468 13.307700
360  2 -0.3568 -0.135081  4.860640 13.438600

