Generated by pymatgen.io.lammps.data.LammpsData

504  atoms

  2  atom types

0.000000 17.774667  xlo xhi
0.000000 21.986255  ylo yhi
0.000000 41.650458  zlo zhi

Masses

1  208.9804
2   78.9600

Atoms

1    1  0.7017 11.819400  5.935070 16.738800
2    1  0.8343  0.144861  0.350194  8.570620
3    1  0.6754 12.350600 21.237900 14.302800
4    1  0.5230 16.716900 12.036100 14.515200
5    1  0.2968  3.538200  8.998480 12.887800
6    1  0.0141  3.594130 20.231700 15.654300
7    1  0.7636  6.977590  4.234020 11.664900
8    1  0.1501  2.002900  8.531340 15.248200
9    1  0.4136  9.624100 12.626300  7.321250
10   1  0.0157  3.327140 15.448300 13.591800
11   1  0.2313 16.875400 11.891100  4.251480
12   1  0.6321 13.176200 20.223500 21.087700
13   1  0.4787 17.011200  4.883430 11.399200
14   1  0.0920  2.668330  5.946760 16.984000
15   1  0.7700 10.247100 13.965200 10.705600
16   1  0.2853  7.966220  4.745500 17.265500
17   1  0.7251 12.413500 20.961200 10.319900
18   1  0.2006  0.878728 21.785800 16.053100
19   1  0.4709  6.052660 14.679800 13.935800
20   1  0.6740 12.088100  7.901380 20.181200
21   1  0.6847 10.359000  0.821538 26.662800
22   1  0.6712 14.458700 18.587600 15.119000
23   1  0.6348 10.336500  5.273980 10.565200
24   1  0.2799  7.679740  2.563240 14.936800
25   1  0.5028  2.007510 14.026300 40.794800
26   1  0.5695  3.566700 20.039200  3.229920
27   1  0.7439 16.884200  8.228820 40.649100
28   1  0.4899  6.515500 21.249600  1.240500
29   1  0.1272  4.057360 11.739300  4.771320
30   1  0.5838  6.216610 20.966200 10.416200
31   1  0.5385  5.127060 15.989400 41.283600
32   1  0.5650  3.749730  9.875910 41.355500
33   1  0.2861  7.531800  3.743060  2.459850
34   1  0.1447  6.363100  8.960840  8.390530
35   1  0.3728 17.042800  8.637330 37.176600
36   1  0.2286 17.326200 14.469200  3.334020
37   1  0.7994  3.840590 19.888600 33.345400
38   1  0.2323  4.633050 12.941400 40.661800
39   1  0.7593 11.286600 16.973200  7.720450
40   1  0.7083 11.254300 10.034700  8.750170
41   1  0.7537 12.763400 11.429500 41.573900
42   1  0.4653  1.907060  8.818120 38.729700
43   1  0.6510  7.601450 20.023700 39.793100
44   1  0.5718  2.816350  1.967940  0.663171
45   1  0.8435 16.302000  3.467120  4.420490
46   1  0.7217 -0.181045 18.706400  1.448190
47   1  0.6873 13.684300 21.853800  6.296760
48   1  0.6758 13.515500  0.691168  1.891780
49   1  0.4188 -0.096123 12.011300  1.076270
50   1  0.2525  4.288700 10.665500 15.026400
51   1  0.2367  0.996180 17.565600  8.115100
52   1  0.0803  3.462880  7.878420  5.093200
53   1  0.5653 11.134400  9.464720 13.408400
54   1  0.4461  2.661270  3.576320  4.349140
55   1  0.1637  2.650170  5.515360  7.215660
56   1  0.4835 14.739400  9.354350 16.340700
57   1  0.5295  9.157150  6.680840  5.298160
58   1  0.3554  4.429180 15.282700  7.641360
59   1  0.2236  5.714530 12.803400  1.455620
60   1  0.6146  9.675860 19.045900  1.136040
61   1  0.4536  6.392270  3.196710  6.491650
62   1  0.4623 15.698000 18.012800  5.946970
63   1  0.5652 15.997300  8.821640  6.828870
64   1  0.7216  2.668720  6.628760  1.412610
65   1  0.0409  7.083110 11.626500  5.872370
66   1  0.1704  2.997330 13.210600  2.317990
67   1  0.1567  0.246107 16.854300 10.717600
68   1  0.7143  0.118261 21.280900  4.628560
69   1  0.4720  2.482050 15.907500  5.066020
70   1  0.7074 16.582000  7.979990  3.363100
71   1  0.7966 10.767300  1.980310  4.921750
72   1  0.0755  3.314650 16.491000 10.990400
73   1  0.4604  7.016700  7.218660 40.971400
74   1  0.2542  4.334230 19.033900 12.179700
75   1  0.4292  8.605580  8.401360 10.969400
76   1  0.8733  9.609030 20.821900  6.025800
77   1  0.6111 14.352000  5.930420 10.788100
78   1  0.2890  3.987640  6.997400  9.337920
79   1  0.0419  3.456620 15.794100 17.898500
80   1  0.1445  6.432420 12.687000  8.459010
81   1  0.2836  5.491200  9.506730  3.201330
82   1  0.7141  6.410280 17.994800  3.508040
83   1  0.3535  8.894950  6.780270  2.287470
84   1  0.6203 11.926700  8.603880  0.652697
85   1  0.5804 -0.026560  4.646190  7.972540
86   1  0.2829  5.212950  4.531490  0.427962
87   1  0.1188  6.721190  8.110160  5.867930
88   1  0.2439  1.689910  8.545280  7.862810
89   1  0.5887 15.127800 18.993300 10.200000
90   1  0.1486  4.658100 10.429000 10.615800
91   1  0.1484  5.523030 14.269100 19.173600
92   1  0.7017 14.852400  2.417200  9.723690
93   1  0.0797  1.923910 10.142100  5.468020
94   1  0.8234 13.073500  9.270720  4.551810
95   1  0.6693 11.822600 13.264600  4.622850
96   1  0.5988  3.606520 19.068200  6.951380
97   1  0.2088  7.968340 14.686100 20.738000
98   1  0.3065  5.844420 16.262000 21.604600
99   1  0.5811 -0.044534  4.237320 23.341700
100  1  0.7780  5.235580 10.849100 20.864500
101  1  0.8227  2.732320 15.091300 35.765700
102  1  0.7111  5.516510 21.205600 21.986400
103  1  0.4911  1.838770 18.260100 22.689200
104  1  0.2256  5.521000  7.652640 14.467800
105  1  0.7365  3.648820 21.627600 29.741600
106  1  0.0900 12.613200  6.642930 31.419200
107  1  0.4156 11.992100  9.028490 27.838600
108  1  0.6950  7.640290  8.860770 27.367800
109  1  0.5945  6.810870 17.742500 25.055800
110  1  0.6839  7.337860  4.936580 25.270000
111  1  0.5967  8.602440  4.063390 28.189800
112  1  0.7288 15.543200 15.515700 27.196200
113  1  0.6517  4.875830 12.014100 27.291800
114  1  0.4400 14.316500 10.628600 30.006200
115  1  0.6949 13.261400 16.178300 22.321800
116  1  0.6418 10.847800 20.090800 29.133200
117  1  0.6826  3.650440  4.376880 28.840400
118  1  0.3871 15.598600 21.932100 19.235700
119  1  0.4523  8.919510 16.500700 17.998100
120  1  0.5997 14.551000 11.474000 25.251200
121  1  0.4097  7.231010 15.512500  6.303720
122  1  0.1742  4.780370  0.712135 14.607100
123  1  0.0619  1.435480  4.001800 14.857700
124  1 -0.0180  5.338310  2.604640 18.297700
125  1  0.0477  4.622430 21.224900 17.899300
126  1  0.4026  6.966130 19.943500 19.316400
127  1  0.2722  1.438860  3.811140 18.190400
128  1  0.7099 15.919800  1.453200 13.807200
129  1  0.6189 16.930800  8.576940 12.337800
130  1  0.6313 11.716500 14.103200 20.413800
131  1  0.2124 15.915700 20.518000 22.770300
132  1  0.5710  8.261220  0.593089 12.093400
133  1  0.6271  4.448000  2.428080  9.443860
134  1  0.5019 12.238100 11.422000 17.793500
135  1  0.3193  1.321510  1.563460 13.435500
136  1  0.7236  9.398740 17.110000 12.431200
137  1  0.1387  3.330690 18.657400 18.092900
138  1  0.4409 15.859300 15.051000  6.104840
139  1  0.7300  3.356080 15.695100 24.476100
140  1  0.7081 14.039300 16.673800 18.194500
141  1  0.4466 16.001900 14.114000 19.905800
142  1  0.7314 -0.260297 10.560800 21.310300
143  1 -0.0642  3.049390  1.819810 16.321600
144  1  0.3037 -0.201489  7.106850 17.068900
145  1  0.7927 11.687200 14.663000 14.275600
146  1  0.1283  3.961450 13.605700 11.143600
147  1  0.4551  6.968600  2.532910 20.986400
148  1  0.5331  7.942770  8.959480 17.782900
149  1  0.1128  6.211950 17.362500 18.876200
150  1  0.6638 13.253800  3.143300 21.139700
151  1  0.2048  2.320060 20.868100 13.213300
152  1  0.6510 10.983800  2.360050 14.281800
153  1  0.5575 11.797700 11.888400 27.057300
154  1  0.8034  9.302750  9.473290 24.123200
155  1  0.7770 12.171100 21.583100 17.325800
156  1  0.6697  8.422990 20.955000 24.312600
157  1  0.4915  8.129460 18.822600 16.945400
158  1  0.5992 15.403800 14.243600 23.166500
159  1  0.5481 16.007700 16.280400 12.632300
160  1  0.8316  8.258720 18.329000  9.108700
161  1  0.1587  2.943710  1.082000 18.854700
162  1  0.3216  0.455956 20.372900 24.173800
163  1  0.7315  9.842020 18.103600 22.074600
164  1  0.6720 15.777400  6.931730 20.891300
165  1  0.5148  6.775490 13.612500 23.266800
166  1  0.2965  0.980770 14.121900 11.392000
167  1  0.3523  7.199810 11.157100 12.967200
168  1  0.0836  4.481720 17.428500 15.536800
169  1  0.8071  1.717670 15.781600 27.957700
170  1  0.5951  2.506340  5.956210 24.832100
171  1  0.9082  6.482590  7.485320 22.395600
172  1  0.7049 12.766000 10.267100 21.875900
173  1  0.7638  3.846190  2.512630 23.198700
174  1  0.0263  2.092550 17.923900 14.091400
175  1  0.4034  0.223988  0.397519 22.441100
176  1  0.2770 10.524000  7.580510 29.795400
177  1  0.5806  4.259910  8.563040 25.747400
178  1  0.7195  5.394200  1.531330 26.362600
179  1  0.0888 -0.126857 20.119100 20.471200
180  1  0.3301  8.948850  7.697260 15.198900
181  1  0.7553 13.166200 20.953100 25.055400
182  1  0.0978  4.769170  4.516850 15.510200
183  1  0.3550 16.109800  5.161670 14.908400
184  1  0.6298  8.624040 12.468400 17.135600
185  1  0.2277  1.360170 17.497900 19.668200
186  1  0.3559  5.347920  5.655590 18.872100
187  1  0.6320  9.849100  1.317160 19.441500
188  1  0.6795 14.067600  3.591880 16.880300
189  1  0.1716  1.471300 14.284100 16.157400
190  1  0.4803  1.598880 13.611500 19.949700
191  1  0.2053 17.221200 19.269300 17.542600
192  1  0.8450 14.143500 11.558500 10.784400
193  1  0.2188 13.507000  9.319700 32.672500
194  1  0.5334  8.843510 13.051500  0.541408
195  1  0.6563 14.180300  2.396110 37.040100
196  1  0.5708  2.813610 20.283200  0.121214
197  1  0.0439  4.190700 10.819700  7.687630
198  1  0.5430 14.573300 15.845000 38.769000
199  1  0.6733 16.218300 21.237000 38.299000
200  1  0.6033 12.667200  1.883260 40.620000
201  1  0.7405 12.534100  4.438030  7.344970
202  1  0.3118  8.563040 10.840200  2.614170
203  1  0.2332 11.097700 19.068100 40.331400
204  1  0.7299 12.729700 18.963600  3.862610
205  1  0.4733  9.554110  5.475470 39.616700
206  1  0.7235 12.086000  4.766600  2.406410
207  1  0.1948  4.789580  5.131090  4.833810
208  1  0.7826 13.207300 14.422300 36.471200
209  1  0.3520 12.803400 16.655700 40.992700
210  1  0.6137 14.655000 16.395000  2.198530
211  1  0.3560  8.151690  2.911510 41.148700
212  1  0.4144  7.125910  4.748970 31.087700
213  1  0.6489 11.186900 20.359900 33.411400
214  1  0.1061  0.283282  8.464350 34.347500
215  1  0.3805 13.174100 19.405600 38.036000
216  1  0.3059  0.600195  6.611710 31.812800
217  1  0.6013 17.375700 18.109100 31.513900
218  1  0.5855 16.826700 18.726900 28.353300
219  1  0.6969 16.933300  3.895040 36.610400
220  1  0.1004  4.110090  6.425440 31.626700
221  1  0.2614  3.217490  8.814090 35.988500
222  1  0.6381  2.278530 16.860500 31.866800
223  1  0.5819  1.422680  0.690807 37.124600
224  1  0.6199 15.650000  5.861570 28.336200
225  1  0.7826 13.232000  7.330210 38.924000
226  1  0.6619  7.558160 17.235500 31.411100
227  1  0.5996  5.926110 16.362900 28.630700
228  1  0.7139  4.797370  1.013470 36.382700
229  1  0.6899  7.362520 21.095700 29.325600
230  1  0.2765  4.476920  9.225840 29.932900
231  1  0.5981  7.176710  4.976140 37.048400
232  1  0.7916 10.997300 14.681400 31.661600
233  1  0.7154 10.767900 12.632500 23.862800
234  1  0.4751  8.781580 10.907400 34.584400
235  1  0.8382 12.205900 17.492600 26.261500
236  1  0.5396 13.495600  8.722130 35.923600
237  1  0.7457  9.875510  3.197730 23.434900
238  1  0.5711 17.078700 11.427900 29.009800
239  1  0.6500 13.491400 19.054000 31.053200
240  1  0.8229 13.233500  2.912380 25.391700
241  1  0.7111 13.094600 17.276200 34.419500
242  1  0.8300 15.187900  2.793660 32.861900
243  1  0.6117  8.645460  9.184090 37.171900
244  1  0.6154 16.706900 12.713600 38.970400
245  1  0.5606  9.267630 12.107500 38.172200
246  1  0.5691  4.414120 19.188900 38.387700
247  1  0.5054  5.828570 13.177600 37.876200
248  1  0.5701  3.986460  3.491580 33.441500
249  1  0.2681  2.275960 11.443100 33.919100
250  1  0.4474 11.789500 10.803000 34.785400
251  1  0.3581  8.084760  7.786990 32.049000
252  1  0.2948 16.741900 11.845200 34.478000
253  1  0.7488  8.481780  1.903680 37.605600
254  1  0.6240  5.707770 14.113800 34.832900
255  1  0.6346 12.612500 10.929700 38.216900
256  1  0.4157  1.718150  9.717120 28.539700
257  1  0.3715 15.262300  7.024160 32.669600
258  1  0.5149 12.928400  5.737560 34.470800
259  1  0.6714 16.863400 14.617800 36.581100
260  1  0.7686 10.586300  1.363440 30.612500
261  1  0.4047  1.937360 12.466200 30.895900
262  1  0.7382 16.683300  2.560870 26.503200
263  1  0.1204  2.607400  6.530000 34.001900
264  1  0.3262  5.375890  8.063560 33.721500
265  1  0.3745  0.523491 13.909500 33.381700
266  1  0.2603  0.965667 11.142500 36.869000
267  1  0.5946 17.061900  8.595610 24.704300
268  1  0.7049  9.841080 15.837600 39.728100
269  1  0.2300  7.839380 13.464100  3.824120
270  1  0.5930  6.079610 15.949500 36.981900
271  1  0.7263  0.248864  0.168925 33.411200
272  1  0.7676 17.312400  1.137880 29.754000
273  1  0.6951  8.991850 15.408800 35.810700
274  1  0.1865 10.469700  9.399820 32.244300
275  1  0.4941 15.606900 13.530100 31.918100
276  1  0.5762  2.581590 20.333400 26.448600
277  1  0.8127  7.688310 21.503300 33.392100
278  1  0.3574 13.837900 19.523100  0.254241
279  1  0.3137 10.261700  5.099490 32.197800
280  1  0.6644  2.887270  4.589160 39.508800
281  1  0.7760  1.089050 18.478200 36.794100
282  1  0.7293 16.107200 19.381200 34.729900
283  1  0.5460  9.759590 19.124700 35.882100
284  1  0.3991 16.557500 17.643600 23.322300
285  1  0.0673  1.451480  9.677980 31.606100
286  1  0.7117  3.685460  0.586782  6.536290
287  1  0.6767 14.477500 21.223800 28.663800
288  1  0.7689  5.995240 14.148600 31.381300
289  2 -0.6757  1.055970  5.994460 37.975700
290  2 -0.7814  1.819890  2.231570  6.808250
291  2 -0.6044  1.697310  4.249580  1.612520
292  2 -0.7549 14.736400 17.119500 31.922700
293  2 -0.7737 11.380300 16.448300 36.780800
294  2 -0.7403  0.396054  5.998320  4.815850
295  2 -0.8622  6.518370  2.573050 38.927200
296  2 -0.5884  6.492090  1.054560  8.023980
297  2 -0.9012 14.866500 19.041200  2.818280
298  2 -0.6101 13.098800 15.730100  4.370130
299  2 -0.6932  3.902160 15.425400 38.493100
300  2 -0.5400 15.560600  0.761069  4.041090
301  2 -0.6460  3.704740 17.491500 35.428400
302  2 -0.8740  0.948504 11.168400 40.433400
303  2 -0.7085 10.736500  2.293760  2.031110
304  2 -0.7045 12.252900  5.853390 41.279900
305  2 -0.7661  1.071330 13.999300 37.745900
306  2 -0.5750 13.411800 21.084400 35.807000
307  2 -0.6151 10.600600 16.350000  0.744007
308  2 -0.6310  1.050120  1.953130 10.313700
309  2 -0.8631  6.488680 10.240600  0.461033
310  2 -0.7750 10.525100  8.495210 39.213300
311  2 -0.6390 13.291000  2.767620  5.326700
312  2 -0.4230  0.176119  2.612670 39.087000
313  2 -0.8717  1.714530 18.898600  4.666240
314  2 -0.6704 12.062000 19.377000  6.793460
315  2 -0.6900 13.775600 13.097300 39.267400
316  2 -0.4797 15.364600  0.601919 41.249500
317  2 -0.7586  3.778470 12.641000 36.212800
318  2 -0.6703 11.288500 21.151200  3.528600
319  2 -0.6942  9.829280  4.250480  6.351980
320  2 -0.5419  8.489160  0.683925  4.688050
321  2 -0.6767  9.640750 21.822200 41.053200
322  2 -0.7071 11.645300 10.812400  2.578060
323  2 -0.4576 16.431300 18.560300 40.550500
324  2 -0.6551 14.481000 16.916300  8.753580
325  2 -0.4471  9.824290 17.829000  3.350800
326  2 -0.7489  6.625660 18.566100 -0.157548
327  2 -0.6890 11.396800  7.257580  3.277580
328  2 -0.7229 -0.555283  6.913090  9.352750
329  2 -0.5857 13.610200 13.572600 33.997400
330  2 -0.8102  5.682670  1.896840 12.014000
331  2 -0.5225 14.840900  6.069660  7.407570
332  2 -0.5790 12.264100  1.168130  8.661160
333  2 -0.6871 10.515800  9.945520  6.118450
334  2 -0.9423  4.578940 14.367600  4.888440
335  2 -0.5384 13.936700 13.817500  1.453170
336  2 -0.7578 14.825800  6.893080 37.315500
337  2 -0.6419  8.978570 17.782000  6.568520
338  2 -0.5046 12.657800  1.104640 12.137100
339  2 -0.8875  7.482040  5.955700 13.577700
340  2 -0.6122 15.343500  9.406990  1.646470
341  2 -0.6431  5.657490 19.760000  5.126820
342  2 -0.5672  9.680040 20.459300  9.126220
343  2 -0.6974  3.340480 21.474100  8.656310
344  2 -0.5981 14.666600 10.426600 13.879600
345  2 -0.7867 16.742400 20.593800  6.965830
346  2 -0.7408 16.497300 19.349300 13.503800
347  2 -0.7540  1.342700  8.805410  1.502030
348  2 -0.5729 12.133500 13.718800  7.625850
349  2 -0.6062 10.651500 19.969200 12.408600
350  2 -0.3690  0.725408 21.470500 40.338400
351  2 -0.7814  6.983100  6.059250  9.520150
352  2 -0.5972 13.498800 17.593600 12.268300
353  2 -0.5894 16.754400 15.717500  0.351126
354  2 -0.9206 14.043100 12.843100 21.462800
355  2 -0.5803 16.276800  0.038768 11.524300
356  2 -0.6199 16.373200  3.895110 20.493900
357  2 -0.6504  8.407430 13.674500 12.377300
358  2 -0.4828 14.174300 13.839100 12.932000
359  2 -0.6687 15.990300  2.119460  7.536850
360  2 -0.6419  3.725050  5.718830 12.142600
361  2 -0.6772 10.595600 14.576500 17.843400
362  2 -0.7287  6.841970 19.321900 14.366700
363  2 -0.6015 13.799800  6.611480 14.511500
364  2 -0.6836  0.866213 13.934900  8.099710
365  2 -0.7800 10.517900  8.106420 17.906600
366  2 -0.5242 10.307200  7.512910 26.124700
367  2 -0.8444  6.028060 12.621800 15.816800
368  2 -0.7988  1.302180 10.223300 12.515900
369  2 -0.7144 13.692300  6.121750 18.840500
370  2 -0.8611  9.065340 10.864000  9.721850
371  2 -0.5733 14.620200  8.791520 10.625800
372  2 -0.8709  9.221300 16.332100  9.909950
373  2 -0.6089  7.198020 15.939800  1.812710
374  2 -0.4655 14.324300  7.022400  4.305460
375  2 -0.6105  8.756430  4.490500 20.785200
376  2 -0.4676 12.168200  7.352380  7.207190
377  2 -0.5945 11.672900 11.741900 11.597500
378  2 -0.6001 14.447700 11.751100  6.146740
379  2 -0.5859 11.466500  5.538520 12.803000
380  2 -0.5518  2.251510 10.968400 19.432900
381  2 -0.8595 11.777000 10.683700 24.460700
382  2 -0.7676 15.140800  9.294840 22.920900
383  2 -0.3299 17.118900 11.358200  9.971060
384  2 -0.7979 16.633200  1.698580 16.579000
385  2 -0.7421 12.641000  0.537600 19.703200
386  2 -0.4901  2.342940  4.950930 22.212300
387  2 -0.7770 15.053300  1.221770 23.952400
388  2 -0.7756 15.006300  3.833420 12.508300
389  2 -0.6674 11.871700 17.189100 20.450300
390  2 -0.8377  5.583550 18.111400  9.281340
391  2 -0.7346 16.286600 15.124100 15.505700
392  2 -0.3981  2.157780  8.528020 23.270900
393  2 -0.6013  5.776600  8.399240 19.455300
394  2 -0.7665  7.420280 19.239700 22.391400
395  2 -0.6727  4.120450 18.313800 23.820300
396  2 -0.9391 15.501300 16.757400 20.779200
397  2 -0.5408  8.799620 15.668400 15.100700
398  2 -0.5092 10.305200  2.624710 10.866600
399  2 -0.6258  6.119520 14.669900 25.758400
400  2 -0.7672 16.318200  8.868450 18.923400
401  2 -0.7250 10.680600  3.478660 17.382300
402  2 -0.7052 12.903300 14.148600 25.322000
403  2 -0.6906 13.765000  1.448150 15.462400
404  2 -0.6223  9.552770 20.223200 18.829200
405  2 -0.6651  2.565950 17.193700  1.742300
406  2 -0.6093 11.349500 11.490900 15.005800
407  2 -0.6787  8.436640  0.378492 22.079200
408  2 -0.8182  4.063840 18.410500 20.630100
409  2 -0.4765  3.840400 13.173800 22.804800
410  2 -0.5281  2.212320 10.506900 26.204600
411  2 -0.5434 16.469600 12.931500 26.624300
412  2 -0.5055  9.018090  8.221980 21.935600
413  2 -0.2889  0.425680 12.108500 23.233100
414  2 -0.6812 15.053200 18.879700 25.852000
415  2 -0.5421 11.228600  3.964220 27.375400
416  2 -0.7943  6.901510  7.565390 25.090400
417  2 -0.8309  7.722710  2.347700 25.076600
418  2 -0.7032  7.661540 18.361800 28.402200
419  2 -0.6915  9.548960 15.672700 23.396800
420  2 -0.5187  2.509650  1.039560 27.862300
421  2 -0.5271 12.337200 16.910100 16.011500
422  2 -0.5049 10.400100 17.055700 30.342500
423  2 -0.7754  8.070880  1.619550 28.575800
424  2 -0.7259 13.828000 19.453400 18.119800
425  2 -0.6819 14.121900 17.321400 28.237800
426  2 -0.7362  2.448880 18.239300 28.986000
427  2 -0.7225 10.736800 19.967000 26.298400
428  2 -0.6142  5.737260 10.416400 34.915200
429  2 -0.7100  9.923120 21.868900 15.868800
430  2 -0.7928 15.673500  9.227660 28.189400
431  2 -0.6831 10.689000 11.713700 21.080200
432  2 -0.6896 12.513200 18.331500 23.556900
433  2 -0.5004 12.275800  5.029120 22.939700
434  2 -0.6301  1.281940 20.885300 30.563700
435  2 -0.3765  2.184970 13.880500 26.239400
436  2 -0.5881  6.010080 11.297500 30.642700
437  2 -0.7461  9.334760 20.837700 31.174100
438  2 -0.7797 16.550700  0.987792 35.875700
439  2 -0.3146  1.448340  7.161750 20.149300
440  2 -0.6328  4.218620 21.709800 24.689700
441  2 -0.6966  4.593100  4.021480 25.888100
442  2 -0.5130  5.590620 10.029200 23.312400
443  2 -0.6406  5.520720 19.827600 31.393200
444  2 -0.6189  8.014210 11.359400 19.758800
445  2 -0.6016  7.250670  1.797420 35.357200
446  2 -0.9499  7.987390  7.195880 29.477800
447  2 -0.5585  7.466020 11.286700 25.845100
448  2 -0.9733  5.800230  6.491940  2.730940
449  2 -0.6017  1.548520  2.412900 24.634100
450  2 -0.8348  4.452640  0.872709  3.358410
451  2 -0.7546  2.951740  0.307688 21.626600
452  2 -0.2667 10.101000 15.992100 27.407400
453  2 -0.8388  2.288640  6.830090 28.482200
454  2 -0.6068 14.733200  5.401140 25.657100
455  2 -0.4615 14.791400  2.558790 28.771600
456  2 -0.5428  0.325401  3.722950 28.422800
457  2 -0.6272  0.994330 14.996300 22.110500
458  2 -0.7461 10.381000 17.449000 33.667400
459  2 -0.4662  7.979630  1.344230 31.477000
460  2 -0.7284  3.602990 14.603400 29.688600
461  2 -0.7563  0.964945 19.567700 34.035600
462  2 -0.7063  0.350902 16.239600 34.630600
463  2 -0.9900 16.092100  9.878210 32.071800
464  2 -0.7094  0.256383 16.911800 26.156900
465  2 -0.7269 10.598700 12.776200 40.497000
466  2 -0.5255  6.393490  8.384460 38.179800
467  2 -0.6653 11.791800 12.188400 30.418100
468  2 -0.7667 15.039300 16.438600 36.231900
469  2 -0.6820 11.257200  1.047320 23.853900
470  2 -0.6699  3.212930  3.075290 36.152300
471  2 -0.8335 14.663300 11.388400 36.205000
472  2 -0.3988  9.014570 11.378900 28.856500
473  2 -0.7308 12.888800 21.450200 31.049000
474  2 -0.6792  8.199570 13.845700 33.168400
475  2 -0.5000 13.078600  3.070580 34.492500
476  2 -0.6518 16.790200 21.686100 26.990100
477  2 -0.6340  5.078460  2.862460 30.678700
478  2 -0.6148  5.346350  5.302030 22.048000
479  2 -0.7554 -0.091690 14.120600 29.622100
480  2 -0.7445  3.351690 13.819300 33.009700
481  2 -0.7140 14.829300  9.680200 39.494700
482  2 -0.6441  5.430470 16.416200 32.758500
483  2 -0.8664 11.146600  7.922820 35.447100
484  2 -0.8900  8.204710 14.549000 38.342100
485  2 -0.6477  6.102700 20.216100 35.550600
486  2 -0.6846 16.264800 18.973300 37.370400
487  2 -0.3546  0.214442  0.202650  1.460880
488  2 -0.5882 11.223700 22.166200 38.390500
489  2 -0.6965  4.059470  7.183330 40.189300
490  2 -0.7639 10.580400 13.084300 35.939100
491  2 -0.7212  7.940670 17.969800 38.126700
492  2 -0.3506 14.690500  3.491070  1.937390
493  2 -0.7292  3.856210 21.993000 39.660700
494  2 -0.5557 11.243100  4.074760 38.320000
495  2 -0.7194 12.868200  0.610974 27.115900
496  2 -0.3209 16.842300  6.114850  0.301415
497  2 -0.6798 16.042100 20.664200 32.121400
498  2 -0.4235  1.702330 18.281700 39.457600
499  2 -0.5958  3.625410  0.616148 33.491600
500  2 -0.5791 13.238100  3.471260 31.307100
501  2 -0.4015 10.231300  0.927492 33.927300
502  2 -0.7477 16.275300  5.069460 34.201300
503  2 -0.5884  0.173725  2.859260 32.219000
504  2 -0.6997  7.831210  6.836860 35.001900

