Generated by pymatgen.io.lammps.data.LammpsData

216  atoms

  2  atom types

0.000000 18.096178  xlo xhi
0.000000 18.140645  ylo yhi
0.000000 18.233787  zlo zhi

Masses

1  208.9804
2   78.9600

Atoms

1    1  0.7726  0.607156 18.151400  0.518597
2    1  0.8144  0.733849 17.906900  6.577560
3    1  0.7274  0.974556 18.046600 12.927200
4    1  0.8239  0.756911  5.552810  0.726301
5    1  0.8119  0.333211  5.807720  6.668880
6    1  0.7987  0.454028  5.879570 12.666100
7    1  0.7993  0.397563 11.862600  0.297089
8    1  0.7439 18.188200 11.812900  6.303130
9    1  0.7957  0.963580 11.606300 12.965800
10   1  0.7588  6.429510 18.105200  0.559505
11   1  0.8303  6.273140 17.385600  6.823190
12   1  0.7087  6.492010 17.337800 12.650400
13   1  0.7918  6.603520  5.893010 18.314100
14   1  0.6719  6.333390  5.850010  6.005950
15   1  0.7503  6.885860  5.519020 12.527400
16   1  0.8242  6.529290 11.368000  0.007365
17   1  0.7417  6.413990 11.736200  5.907050
18   1  0.8519  6.711100 11.759900 12.304800
19   1  0.7151 12.939700 17.987600  0.598144
20   1  0.8664 12.596500 17.976400  6.558790
21   1  0.8926 12.529900 17.637500 12.778900
22   1  0.7854 12.888200  5.529350  0.719445
23   1  0.8171 12.340900  5.865220  6.493320
24   1  0.7547 12.841100  5.383330 12.126600
25   1  0.8584 12.427100 11.312000  0.435800
26   1  0.7310 12.497300 12.032200  6.281780
27   1  0.7331 12.634900 11.166200 12.934000
28   1  0.8114  0.222070  2.156650  3.839660
29   1  0.7829  0.520392  2.765750 10.184900
30   1  0.7495  1.022770  2.705690 15.572400
31   1  0.9050  0.628248  8.687470  3.419540
32   1  0.7952  0.296848  8.749870  9.588510
33   1  0.6879  0.616829  9.102470 15.704400
34   1  0.8154  0.108599 14.727700  3.287950
35   1  0.6676  0.702898 14.840400 10.135100
36   1  0.8742  0.212392 14.463600 15.753600
37   1  0.7466  6.429800  3.025080  3.038510
38   1  0.8155  6.402230  2.813320  9.498890
39   1  0.8446  6.883690  2.559290 15.531000
40   1  0.7468  6.553960  8.737810  3.678360
41   1  0.8415  6.972250  8.604880  9.509290
42   1  0.7464  6.482860  8.430610 15.749800
43   1  0.7572  6.526530 15.046800  2.918270
44   1  0.7986  6.516180 14.863600  9.726530
45   1  0.6505  7.169190 14.891400 15.250700
46   1  0.7197 12.675400  1.977560  3.209090
47   1  0.8356 12.579500  2.584950  9.698490
48   1  0.7812 12.592800  2.409670 15.420600
49   1  0.8061 12.304000  8.546250  3.465920
50   1  0.7728 12.602600  8.808580  9.210420
51   1  0.8122 12.600100  8.318920 15.899100
52   1  0.8282 12.396200 14.694000  3.257630
53   1  0.8049 12.375300 14.954900  9.586330
54   1  0.8232 12.614500 14.353200 15.432700
55   1  0.8106  3.940710 17.666400  2.829370
56   1  0.8399  3.664470 18.074800  9.381310
57   1  0.8179  3.962160 17.611400 15.909300
58   1  0.7278  3.614860  5.934620  2.906040
59   1  0.8461  3.733200  5.398730  9.180150
60   1  0.7626  3.636570  5.427010 15.442900
61   1  0.8305  3.654410 11.921000  3.184430
62   1  0.7408  3.703140 11.352200  9.724650
63   1  0.8636  3.686770 11.933600 15.931500
64   1  0.7878  9.252160 17.684700  3.299650
65   1  0.7751  9.207040 17.743900  9.797330
66   1  0.8420  9.523140 17.395600 15.481800
67   1  0.7845  9.450770  5.881410  3.363350
68   1  0.7843  9.933920  6.025840  9.743110
69   1  0.7560  9.425380  5.476460 15.466500
70   1  0.8446  9.651140 11.653500  3.206070
71   1  0.8072  9.425050 11.550500  8.969630
72   1  0.7971  9.370470 11.683600 15.302300
73   1  0.7323 15.531500 17.702300  3.497610
74   1  0.7441 15.847300 18.144800  9.879780
75   1  0.7348 16.374800 18.011000 15.516800
76   1  0.8421 15.752300  5.447730  3.711520
77   1  0.7971 15.383500  5.867450  9.266310
78   1  0.7708 15.635900  5.195800 15.695200
79   1  0.7482 15.516200 11.651800  3.641850
80   1  0.7589 15.846300 11.703900  9.503160
81   1  0.6446 15.705600 11.319500 15.725700
82   1  0.8112  3.066680  2.725830  0.564783
83   1  0.7813  3.833560  2.222690  6.643930
84   1  0.8123  3.778620  2.440210 12.660900
85   1  0.7275  2.883900  8.616020  0.377459
86   1  0.7984  3.767210  8.630700  5.972730
87   1  0.7630  3.328640  7.971590 12.042700
88   1  0.8116  3.682580 15.263900  0.292682
89   1  0.8011  3.606140 14.311400  6.250280
90   1  0.8506  3.797540 14.733200 12.896300
91   1  0.8289  9.219750  2.911040  0.594120
92   1  0.8064  9.617790  2.386520  6.901900
93   1  0.8244  9.802270  2.618450 12.885400
94   1  0.8067  9.092690  8.275210  0.444179
95   1  0.8323  9.483210  8.496790  6.311950
96   1  0.7260  9.922040  8.079460 12.905200
97   1  0.8303  9.594790 14.706400  0.327600
98   1  0.7509  9.523050 14.869500  6.577860
99   1  0.7243  9.744660 14.355700 12.521100
100  1  0.7783 15.594600  2.944710  0.414323
101  1  0.7842 15.325500  2.630030  7.190220
102  1  0.7286 15.303600  2.426020 12.977400
103  1  0.7408 15.245200  8.693560  0.333694
104  1  0.7465 15.489900  8.836240  6.356240
105  1  0.8011 15.728600  8.610310 12.891600
106  1  0.7988 15.727800 14.718300  0.566894
107  1  0.8186 15.646700 14.885500  6.482190
108  1  0.7117 16.055600 14.773300 12.843700
109  2 -0.9350  3.630280 18.138800  0.209686
110  2 -0.7144  3.644650 17.372500  6.187500
111  2 -0.8097  3.569420 17.745600 12.492100
112  2 -0.8489  3.478920  5.467570  0.138667
113  2 -0.7328  3.208820  5.986840  6.681620
114  2 -0.7726  3.609940  5.253120 12.303500
115  2 -0.7311  3.328590 11.995500  0.383042
116  2 -0.7529  3.267150 11.524700  6.013360
117  2 -0.6944  3.807750 12.033300 13.273000
118  2 -0.7129  9.535230 17.702800  0.443334
119  2 -0.7402  9.273200 17.750900  6.478350
120  2 -0.8151  9.794150 17.665100 12.818700
121  2 -0.7729  9.640910  5.540520  0.242765
122  2 -0.7573  9.318180  5.765780  7.031640
123  2 -0.9218  9.790850  5.333850 12.599700
124  2 -0.7074  9.517580 11.650800  0.474490
125  2 -0.7964  9.634530 11.602400  6.102350
126  2 -0.7757  9.473950 11.776300 12.291500
127  2 -0.7863 15.953400 -0.641183  0.419199
128  2 -0.7475 15.474000 17.796900  6.667780
129  2 -0.8381 15.358700 17.750300 12.512200
130  2 -0.7502 15.973300  5.664030  0.958168
131  2 -0.8365 15.372900  5.658130  6.560340
132  2 -0.7325 15.757400  5.606000 12.332300
133  2 -0.8021 15.192000 11.604100  0.622536
134  2 -0.8919 15.514700 11.528900  6.515030
135  2 -0.7675 15.686000 11.658700 12.779700
136  2 -0.7363  3.437580  2.685000  3.211000
137  2 -0.8566  3.874320  2.474060  9.538350
138  2 -0.7888  3.769100  2.363810 15.618000
139  2 -0.8512  3.391970  8.670560  3.199350
140  2 -0.6932  3.711290  8.495040  9.309500
141  2 -0.7224  3.470930  8.728500 15.367600
142  2 -0.7350  3.418680 14.727400  3.123690
143  2 -0.7164  3.697410 14.734800  9.749850
144  2 -0.7456  3.507570 14.897300 15.804000
145  2 -0.7389  9.220690  2.922320  3.471380
146  2 -0.7536  9.829780  2.207800  9.579280
147  2 -0.7279  9.646820  2.184920 15.690400
148  2 -0.8414  9.531530  8.572840  3.397650
149  2 -0.8025  9.802220  8.760660  9.774090
150  2 -0.7955  9.795530  8.507670 15.687200
151  2 -0.7845  9.590740 14.849800  3.261310
152  2 -0.8227  9.456080 14.509500  9.462340
153  2 -0.8738  9.743280 14.471000 15.905000
154  2 -0.8188 15.471800  2.562460  3.402040
155  2 -0.8508 15.556800  2.878410  9.633100
156  2 -0.8767 16.236700  2.626980 15.862600
157  2 -0.7269 15.759300  8.496420  3.549090
158  2 -0.8094 15.815800  8.858960  9.672650
159  2 -0.8229 15.372100  8.147720 15.722100
160  2 -0.8504 15.591600 14.935500  3.773930
161  2 -0.7033 15.383300 14.783500  9.177110
162  2 -0.7550 15.595000 14.814400 15.900400
163  2 -0.7499 19.006100 17.876900  3.534520
164  2 -0.8106  0.796220 18.027000  9.368520
165  2 -0.7876  0.851165 17.510200 15.624300
166  2 -0.7040  0.697675  5.743020  3.602720
167  2 -0.7434  0.637695  5.807620  9.522940
168  2 -0.7378  0.513365  5.553040 15.752100
169  2 -0.7210 18.789600 11.654100  3.466050
170  2 -0.7872  0.838211 11.538000 10.184300
171  2 -0.9025  0.701927 11.916300 15.892700
172  2 -0.8772  6.512780 17.864300  3.206430
173  2 -0.8358  6.305170 17.681000  9.690030
174  2 -0.8519  6.920480 18.012600 15.993600
175  2 -0.8766  6.758780  5.863080  2.832690
176  2 -0.7642  6.386600  5.945770  9.308110
177  2 -0.8696  6.522800  5.498180 15.191500
178  2 -0.7656  6.820220 11.714900  3.123050
179  2 -0.7583  6.623850 11.386000  9.288860
180  2 -0.7795  6.827910 11.662200 15.351000
181  2 -0.8268 12.538200 17.544600  3.696430
182  2 -0.6894 12.399500 17.825600  9.800080
183  2 -0.6985 12.424300 17.862900 15.643100
184  2 -0.7531 12.573500  5.648510  3.603750
185  2 -0.8844 12.560600  5.789610  9.246460
186  2 -0.7275 12.522800  5.343980 15.659200
187  2 -0.8066 12.688900 11.793000  3.236100
188  2 -0.6854 12.680100 11.578000  9.465470
189  2 -0.7993 12.418400 11.616600 15.906100
190  2 -0.7939  0.102919  2.866080  0.881073
191  2 -0.7400  1.108470  2.590240  6.464960
192  2 -0.8431  0.373190  2.791750 12.576400
193  2 -0.8164  0.308544  8.948980  0.908849
194  2 -0.7143  0.563431  8.766010  6.362420
195  2 -0.8225  0.620573  8.698610 12.771400
196  2 -0.7505  0.546599 14.725300  0.481322
197  2 -0.7216  0.600473 14.929300  6.116310
198  2 -0.7939  0.807465 14.648700 13.103500
199  2 -0.7709  6.556130  3.062830  0.111692
200  2 -0.7539  6.539590  2.044080  6.714760
201  2 -0.7661  6.541470  2.493070 12.308400
202  2 -0.8691  6.369120  8.690150  0.260021
203  2 -0.8692  6.790800  8.646590  6.297430
204  2 -0.6971  6.455030  8.709090 12.477100
205  2 -0.7774  6.372880 14.369800  0.359547
206  2 -0.8042  6.345470 14.606100  6.291980
207  2 -0.9110  6.483520 14.487900 12.257100
208  2 -0.7888 12.471500  2.805680  0.320574
209  2 -0.8003 12.728100  2.418030  6.741810
210  2 -0.8683 12.471900  2.462070 12.505000
211  2 -0.7895 12.145300  8.455890  0.518851
212  2 -0.8403 12.155500  8.624030  6.219030
213  2 -0.7691 12.869000  8.389010 12.924700
214  2 -0.6726 12.676300 14.675600  0.540177
215  2 -0.7325 12.551100 15.291700  6.512210
216  2 -0.7640 12.587600 14.949400 12.696100

