Generated by pymatgen.io.lammps.data.LammpsData

360  atoms

  2  atom types

0.000000 16.677463  xlo xhi
0.000000 21.699897  ylo yhi
0.000000 28.493178  zlo zhi

Masses

1  208.9804
2   78.9600

Atoms

1    1  0.7093  2.009940 13.301100 20.231300
2    1  0.8583  3.737260 16.914800 20.481800
3    1  0.7572  1.348940  5.891410 20.487800
4    1  0.8100  3.654640  9.897810 20.700000
5    1  0.8381  5.933080 13.931200 21.465500
6    1  0.7537  8.058380 17.021100 20.777200
7    1  0.7575  1.937230 20.837800 20.759200
8    1  0.7928  3.781210  2.547330 21.029400
9    1  0.8908  5.653940  6.141740 20.907200
10   1  0.7426  8.264020  9.906500 20.505600
11   1  0.6811 10.190700 13.577600 20.085800
12   1  0.8277 12.193200 17.016100 20.683200
13   1  0.8092  5.638830 20.711200 20.785100
14   1  0.8368  8.268000  2.765560 20.724400
15   1  0.8424  9.693850  6.464340 19.924700
16   1  0.8341 11.924000  9.540490 19.881200
17   1  0.7395 13.587800 12.854200 20.293600
18   1  0.8068 16.326000 16.295600 21.107300
19   1  0.8269  9.879130 20.879300 21.409400
20   1  0.7339 12.249900  2.885850 20.487600
21   1  0.7109 14.597500  6.044040 20.445900
22   1  0.7387 16.432200  9.947210 20.148000
23   1  0.7583 14.207400 20.699200 20.878400
24   1  0.7948 15.911300  2.123980 21.438200
25   1  0.7732  1.385660 13.500600 26.669000
26   1  0.7641  3.804120 17.190000 26.565400
27   1  0.8038  1.966280  6.087000 26.429400
28   1  0.9033  4.034740 10.142200 25.144900
29   1  0.8553  6.205790 13.868900 26.316400
30   1  0.7332  7.919020 16.974800 26.661400
31   1  0.8191  1.338640 20.214900 26.880800
32   1  0.8726  3.830900  2.580970 26.559800
33   1  0.8664  5.502640  6.564840 26.490200
34   1  0.7994  7.986780  9.677880 26.044900
35   1  0.8743 10.522700 12.815700 25.329200
36   1  0.7788 11.655600 16.982300 27.178300
37   1  0.7676  5.619510 20.967700 26.137500
38   1  0.8662  7.948310  2.856180 26.187100
39   1  0.7721  9.711780  6.264530 26.717700
40   1  0.8461 12.109200  9.730780 26.819600
41   1  0.6651 14.140500 13.272100 26.843700
42   1  0.7944 15.867300 16.840900 26.572000
43   1  0.7691  9.839420 21.109500 25.458900
44   1  0.8261 12.458400  2.521980 27.123200
45   1  0.7109 14.383900  6.124580 27.229600
46   1  0.7052 16.309800  9.367000 26.738200
47   1  0.8797 13.724900 20.256600 27.116300
48   1  0.7854 15.826900  3.053650 26.218300
49   1  0.8176  2.057320 15.832000  2.102120
50   1  0.7983  3.800330 18.909100  1.480950
51   1  0.7917  1.710750  8.396370  1.209870
52   1  0.8230  4.401630 12.087800  1.576720
53   1  0.7605  6.277050 15.583200  1.123850
54   1  0.7776  8.059210 19.157000  2.071320
55   1  0.7787  1.477160  1.466640  1.538770
56   1  0.8193  3.865460  4.975890  1.142220
57   1  0.8055  6.078430  7.966160  1.898560
58   1  0.8313  8.735930 11.736800  1.606520
59   1  0.7316  9.989490 15.529000  1.403770
60   1  0.8252 12.021900 19.301500  2.132560
61   1  0.8266  6.174050  1.041180  0.918523
62   1  0.7935  8.131990  4.431160  1.222430
63   1  0.6954  9.725830  8.258840  1.175820
64   1  0.7180 12.350500 12.105000  1.573070
65   1  0.6820 13.711100 15.626500  1.124370
66   1  0.7807 16.093300 18.889600  2.190500
67   1  0.7624  9.827660  1.708540  1.367780
68   1  0.7449 12.382500  5.046810  1.396440
69   1  0.7625 14.520000  7.688340  1.883090
70   1  0.7304 16.294300 11.776900  1.753870
71   1  0.8285 14.150400  0.821934  1.644240
72   1  0.8019  0.067137  4.736970  2.068490
73   1  0.8360  1.163270 15.368200  8.108380
74   1  0.7457  3.524350 19.149300  7.640070
75   1  0.8306  1.553550  8.643390  7.375720
76   1  0.8092  3.499600 12.041200  7.505610
77   1  0.8301  5.310440 15.792300  7.378930
78   1  0.7189  7.892930 19.669700  8.050300
79   1  0.7870  2.133210  0.817645  7.281290
80   1  0.7856  3.900070  5.280150  7.259030
81   1  0.7421  5.571600  8.590460  7.463900
82   1  0.7677  7.280340 11.887200  7.819080
83   1  0.8593  9.281760 15.512800  7.253670
84   1  0.8373 12.283500 18.946000  7.880610
85   1  0.8056  5.723180  1.294760  7.991560
86   1  0.7695  7.911090  5.127650  6.816850
87   1  0.8083  9.543430  8.147100  8.123280
88   1  0.7492 11.834100 12.411700  7.597030
89   1  0.7574 13.810100 15.554000  7.833460
90   1  0.8068 16.027300 18.962100  7.742690
91   1  0.9229 10.060100  0.468356  6.424260
92   1  0.8130 11.339300  4.023020  6.527190
93   1  0.7423 13.763300  8.318480  7.508780
94   1  0.6757 15.694900 12.623900  7.884660
95   1  0.7827 13.909600  0.802029  7.818760
96   1  0.8196 16.186900  4.755930  7.345930
97   1  0.8181 15.852500 14.800800 11.421000
98   1  0.7940  1.693380 18.179500 11.198000
99   1  0.7781 15.685100  7.133010 10.889700
100  1  0.7991  1.604820 11.407200 11.735800
101  1  0.8343  3.484720 14.769600 11.626900
102  1  0.6618  5.463040 18.324100 10.573500
103  1  0.8702 15.808400  0.016334 11.247700
104  1  0.8131  0.954079  3.698570 10.610100
105  1  0.7642  3.642520  7.340290 11.306500
106  1  0.7970  5.555530 10.570000 11.434200
107  1  0.8343  7.624950 14.384300 11.258900
108  1  0.6868  9.333830 17.948100 10.613600
109  1  0.8024  3.341490  0.057884 10.838600
110  1  0.8290  5.654250  3.445450 11.062400
111  1  0.8261  7.447340  7.310690 11.219600
112  1  0.8447  9.992370 10.701300 11.142400
113  1  0.8062 11.689200 14.379300 11.385300
114  1  0.7585 13.430000 17.802400 12.057600
115  1  0.8185  7.706790 21.497400 12.424900
116  1  0.8336  9.624540  3.530360 10.907700
117  1  0.7660 11.530200  7.125620 10.992000
118  1  0.8466 13.498300 11.028100 10.569900
119  1  0.8037 11.703300 21.426900 10.943700
120  1  0.6959 13.588500  3.351370 10.473600
121  1  0.7855 15.831100 14.433000 17.355800
122  1  0.7309  2.216810 18.708000 17.262200
123  1  0.6563 16.265000  7.095950 16.794900
124  1  0.8068  1.601230 10.882900 17.166600
125  1  0.7698  3.340080 14.723900 17.009000
126  1  0.7748  6.491390 17.942600 17.549500
127  1  0.8239 16.311700  0.425327 17.324900
128  1  0.7698  1.412240  3.474670 16.482100
129  1  0.7520  3.498330  7.461250 16.807600
130  1  0.8811  5.915340 10.980900 17.543600
131  1  0.7271  7.882510 14.329800 17.024500
132  1  0.8278 10.252900 18.514500 17.628300
133  1  0.7128  4.323780  0.089478 17.572600
134  1  0.7610  5.718580  3.403940 17.333700
135  1  0.7781  7.718800  7.093090 16.398600
136  1  0.8352 10.104700 10.584400 16.908200
137  1  0.7676 11.891800 15.000400 17.271800
138  1  0.6961 14.581500 18.843300 17.555600
139  1  0.8453  8.416470  0.260783 16.756200
140  1  0.7406  9.927770  3.470560 17.494000
141  1  0.8632 12.745500  7.185370 16.974100
142  1  0.9009 14.346300 10.925000 17.217800
143  1  0.8343 12.093800  0.289788 17.293000
144  1  0.7767 13.968900  3.677180 16.863100
145  2 -0.7996 16.484700 14.476700  0.338678
146  2 -0.8277  1.427700 17.911400  0.156822
147  2 -0.9558 16.570400  6.671760  0.204698
148  2 -0.6585  2.487730 10.599900 27.977200
149  2 -0.7791  4.303090 14.295300 28.233800
150  2 -0.8454  5.992100 18.534200 28.155400
151  2 -0.7234 16.097600 21.492200 28.281400
152  2 -0.8035  1.831210  3.815620 28.062000
153  2 -0.8150  3.742870  7.377860 28.209400
154  2 -0.6284  6.163710 10.443700  0.083396
155  2 -0.7620  8.067770 13.860200 28.444800
156  2 -0.8548 10.128600 18.405500  0.472234
157  2 -0.7490  3.565080  0.281303 28.168400
158  2 -0.8251  6.051950  3.359890 28.068300
159  2 -0.9041  7.418650  6.719770 28.210300
160  2 -0.8430  9.833560 10.793800 27.555800
161  2 -0.8428 11.586200 14.147800 27.920000
162  2 -0.9041 13.700600 18.085400  0.199108
163  2 -0.8284  7.994160  0.552793 27.378500
164  2 -0.8920 10.278300  3.830640 28.254300
165  2 -0.8612 11.951000  7.574450 28.274100
166  2 -0.8658 13.938900 10.353800  0.094907
167  2 -0.8104 12.207200  0.059203  0.022593
168  2 -0.8713 14.264300  3.315100  0.272666
169  2 -0.4908  1.401780 16.376200 25.639100
170  2 -0.3201  3.418440 19.096500 24.760100
171  2 -0.3709  1.856260  8.884670 24.736200
172  2 -0.3811  3.992040 12.786300 24.892500
173  2 -0.4841  6.198750 16.034000 25.030400
174  2 -0.3580  7.827610 18.854500 24.488300
175  2 -0.3460  1.520420  1.113230 25.423700
176  2 -0.4684  3.805360  4.920210 25.096400
177  2 -0.4978  6.002090  8.295240 24.648700
178  2 -0.4675  7.301950 11.746200 24.779300
179  2 -0.3704  9.765290 15.708200 25.228400
180  2 -0.3635 11.945200 18.979700 25.174100
181  2 -0.4343  5.933370  1.690000 24.817400
182  2 -0.3059  7.604780  5.353010 24.661000
183  2 -0.2385 10.293200  8.315080 24.252300
184  2 -0.4266 12.759600 11.637400 24.908400
185  2 -0.3835 13.555200 16.052500 25.308100
186  2 -0.3273 15.513600 19.148400 25.194500
187  2 -0.3494 10.014200  2.100280 24.386200
188  2 -0.3777 12.172000  5.115120 25.731600
189  2 -0.2741 14.112300  7.688640 25.148100
190  2 -0.4860 16.441700 11.873500 25.568500
191  2 -0.4527 14.132500  0.998664 25.566500
192  2 -0.3747 16.395800  4.994830 24.683600
193  2 -0.2901 15.336200 13.735400 22.547100
194  2 -0.3231  1.452590 17.967100 22.365400
195  2 -0.3877 16.668900  7.225540 22.042800
196  2 -0.5309  2.243750 11.313500 21.936100
197  2 -0.3956  3.638690 14.745300 22.451500
198  2 -0.3720  5.226790 18.152800 22.171400
199  2 -0.3821  0.045682 21.545100 22.679600
200  2 -0.3695  1.811170  3.856120 22.416400
201  2 -0.3484  3.827190  7.422870 22.414600
202  2 -0.4321  5.881490 11.097100 22.031800
203  2 -0.3406  8.321780 14.782500 22.723400
204  2 -0.3646 10.359100 18.095600 22.463600
205  2 -0.4533  3.737780  0.318394 22.564300
206  2 -0.3614  5.771830  3.926070 22.402200
207  2 -0.4890  7.834770  7.338960 21.615800
208  2 -0.4986 10.436300 11.141500 21.801900
209  2 -0.3129 11.887000 14.474800 22.452100
210  2 -0.3073 14.108200 18.027800 22.594400
211  2 -0.4820  7.906910  0.585805 22.420000
212  2 -0.3397 10.062800  4.038250 22.031100
213  2 -0.2833 12.168000  7.142940 21.686600
214  2 -0.2728 14.243500 10.450600 22.026000
215  2 -0.4431 12.596500  0.834021 22.496300
216  2 -0.3153 13.621700  4.207640 22.499800
217  2 -0.8321  1.589040 13.505500 10.083500
218  2 -0.8776  3.378190 16.517600  9.305660
219  2 -0.7848  1.200590  5.977820  8.887470
220  2 -0.8168  3.369580  9.553460  9.387230
221  2 -0.7729  5.454810 12.815200  9.530950
222  2 -0.8808  7.797250 16.173800  9.374800
223  2 -0.7878  1.039260 20.589800  9.461660
224  2 -0.7999  3.508250  2.704700  9.295420
225  2 -0.8127  5.508690  6.144860  9.409190
226  2 -0.9038  7.914520  9.299750  9.757400
227  2 -0.7971  9.888220 12.897100  9.610560
228  2 -0.8660 11.400600 16.827800  8.889310
229  2 -0.9440  5.347240 20.680700  9.078660
230  2 -0.6792  7.926750  1.813870  9.357480
231  2 -0.8472  9.280980  5.561650  9.403640
232  2 -0.8611 11.427300  9.496400  9.350910
233  2 -0.9961 13.559300 13.304300  9.726230
234  2 -0.8796 15.940400 16.553700  9.522220
235  2 -0.8168 10.226400 20.688200  9.029190
236  2 -0.7767 11.646000  2.273600  8.383610
237  2 -0.8084 13.681700  5.617410  8.835300
238  2 -0.7661 15.672900  9.828110  9.185200
239  2 -0.8655 13.790100 20.146400  9.557300
240  2 -0.7939 16.354700  2.089670  9.055900
241  2 -0.3696 16.151400 14.582000  6.104880
242  2 -0.4528  1.298120 17.941700  6.360650
243  2 -0.3206 16.504100  7.037760  5.735830
244  2 -0.2961  0.784701 11.172700  5.743530
245  2 -0.5022  3.401680 14.213800  6.466250
246  2 -0.4279  5.636900 18.113600  6.198030
247  2 -0.3563  0.224262 21.654800  6.019300
248  2 -0.2632  1.594310  4.104070  5.362740
249  2 -0.5102  3.574500  7.965660  6.079300
250  2 -0.4024  5.397900 11.106400  5.809080
251  2 -0.3789  7.677620 14.343900  5.955480
252  2 -0.3289  9.590130 18.475900  5.853000
253  2 -0.3132  3.998450 21.485800  5.755880
254  2 -0.3700  5.582550  4.114130  5.618790
255  2 -0.4686  8.140910  7.509340  5.866010
256  2 -0.3037  9.741540 10.672200  6.203000
257  2 -0.3351 11.745100 14.288900  5.758120
258  2 -0.3524 14.172700 17.614500  6.008790
259  2 -0.3957  7.567490 21.663400  6.125570
260  2 -0.3964  9.154960  3.007440  5.189700
261  2 -0.2771 11.533300  7.281310  5.625620
262  2 -0.2154 14.083100 10.758700  5.322530
263  2 -0.4319 12.369200 21.107000  5.977330
264  2 -0.3573 14.001300  3.327170  5.838370
265  2 -0.2727  1.154260 13.307600  3.440180
266  2 -0.5816  4.549880 16.702100  2.587380
267  2 -0.4073  1.860000  6.423180  3.021290
268  2 -0.3134  3.905460  9.785540  3.311150
269  2 -0.2990  6.317150 13.180200  3.197000
270  2 -0.3462  7.976820 16.311000  3.396100
271  2 -0.4057  1.681700 20.628800  2.961910
272  2 -0.3688  3.258840  3.343280  2.877780
273  2 -0.4123  6.317550  5.511020  3.005280
274  2 -0.2869  8.073040 10.092700  3.611960
275  2 -0.4322 10.355000 13.458200  3.014940
276  2 -0.3347 12.251400 16.656900  3.481910
277  2 -0.3795  5.601950 20.435900  2.746610
278  2 -0.4182  7.484530  2.045200  2.853030
279  2 -0.4413 10.147400  6.185850  2.933470
280  2 -0.2444 12.158300  9.500480  3.384580
281  2 -0.2572 14.332400 13.238900  3.566080
282  2 -0.3126 15.911400 16.336800  3.198850
283  2 -0.3815 10.292000 20.991200  3.733730
284  2 -0.4155 11.872900  2.191490  3.127650
285  2 -0.3941 14.275900  5.699920  3.638760
286  2 -0.3996 15.967600  9.461880  3.219090
287  2 -0.3482 14.184100 20.358900  3.854970
288  2 -0.3085 16.116500  1.966090  3.668590
289  2 -0.8732  1.184390 15.931600 19.171300
290  2 -0.8911  4.037590 19.131800 19.151300
291  2 -0.9087  1.628080  8.437720 18.734500
292  2 -0.7448  4.324570 12.463000 18.816100
293  2 -0.8177  5.595810 15.755000 19.066900
294  2 -0.7405  7.806570 19.547600 19.381700
295  2 -0.7903  2.243010  1.711200 18.869400
296  2 -0.7265  4.125370  5.026140 18.738600
297  2 -0.7160  5.775190  8.588830 18.807400
298  2 -0.8398  8.013860 12.668300 19.155400
299  2 -0.9603 10.304000 16.438200 18.895300
300  2 -0.8103 11.887600 20.022300 19.521800
301  2 -0.8038  6.597400  1.015280 18.745400
302  2 -0.8181  7.613720  4.860980 18.802600
303  2 -0.8633 10.357800  8.281520 18.201800
304  2 -0.9270 12.182700 11.688600 18.409500
305  2 -0.8628 13.954000 15.501100 19.378600
306  2 -0.8802 16.458300 20.274100 18.958300
307  2 -0.8264  9.828390  1.219430 18.952700
308  2 -0.8589 11.663700  5.083680 18.526000
309  2 -0.9280 13.985100  8.650020 18.652700
310  2 -0.9678 16.302800 12.065700 18.293100
311  2 -0.8521 14.213900  1.458400 18.707800
312  2 -0.8167 16.271300  3.918650 19.497500
313  2 -0.3901  1.379110 13.148100 15.583100
314  2 -0.3584  4.281990 17.034200 15.626200
315  2 -0.4271  1.191190  5.949570 15.031900
316  2 -0.4610  3.938840 10.462100 15.942500
317  2 -0.2689  5.337870 13.587800 15.469000
318  2 -0.2464  8.690000 17.244100 15.290600
319  2 -0.2799  1.947550 20.697300 15.343500
320  2 -0.3336  3.823390  2.517720 15.389700
321  2 -0.3177  5.313840  5.859990 14.993300
322  2 -0.4870  7.703760  9.877800 15.787100
323  2 -0.3861 10.196000 12.935000 15.487300
324  2 -0.4183 12.356200 16.873600 15.869000
325  2 -0.3841  6.168760 20.242700 15.739300
326  2 -0.3629  7.553170  1.922270 14.633900
327  2 -0.3234 10.287200  5.683830 15.433300
328  2 -0.2316 12.309800  9.289600 15.161000
329  2 -0.2633 13.799900 12.985900 15.487600
330  2 -0.3207 15.907800 17.249900 15.642300
331  2 -0.5252 10.290900 20.573000 15.888400
332  2 -0.4167 12.370500  1.981230 15.575000
333  2 -0.4860 14.059600  5.646770 15.366500
334  2 -0.3983 16.355600  9.587490 15.442600
335  2 -0.3109 14.495000 20.635500 15.461600
336  2 -0.3506 16.334000  1.870560 15.186500
337  2 -0.4153  0.997271 15.935200 12.994600
338  2 -0.4686  3.659130 19.541700 12.367300
339  2 -0.3757  0.729048  8.079600 12.535900
340  2 -0.3850  3.738640 12.431200 13.049900
341  2 -0.3040  5.851930 15.562200 13.045100
342  2 -0.4064  7.282010 18.579300 12.716500
343  2 -0.3474  1.251480  1.264250 12.343400
344  2 -0.2850  3.289410  4.458470 12.577300
345  2 -0.4996  5.772590  8.380330 12.977700
346  2 -0.3609  7.133240 12.002800 12.890900
347  2 -0.3829  9.887770 15.411500 12.931700
348  2 -0.3316 10.945600 19.174600 13.161400
349  2 -0.3836  5.322570  1.101730 12.726200
350  2 -0.4716  7.337200  4.811170 12.422200
351  2 -0.2948 10.168600  8.469620 13.288400
352  2 -0.3330 12.094200 11.672700 12.773000
353  2 -0.4045 13.953200 15.394100 13.165000
354  2 -0.3958 16.061500 19.373200 12.466700
355  2 -0.4781  9.987410  1.208930 12.505500
356  2 -0.3251 12.139100  4.632490 12.594100
357  2 -0.4538 13.433000  8.601880 11.822600
358  2 -0.2418 15.884400 12.081300 13.156900
359  2 -0.3797 13.566000  1.010600 12.570800
360  2 -0.3252 15.942800  4.336240 12.683000

