Generated by pymatgen.io.lammps.data.LammpsData

360  atoms

  2  atom types

0.000000 16.677463  xlo xhi
0.000000 21.699897  ylo yhi
0.000000 28.493178  zlo zhi

Masses

1  208.9804
2   78.9600

Atoms

1    1  0.8754  1.893250 12.371900 20.849000
2    1  0.8319  4.368080 16.577400 21.516800
3    1  0.7838  1.882570  5.055770 19.959000
4    1  0.7769  3.631330  8.599210 20.517100
5    1  0.8371  5.785560 13.099700 20.582900
6    1  0.8938  8.549880 16.506300 20.843300
7    1  0.7690  2.446930 19.673800 20.933700
8    1  0.7773  4.355730  1.465810 20.329500
9    1  0.7558  6.032100  5.147960 20.332200
10   1  0.8030  7.723560  8.751030 20.547400
11   1  0.8382  9.988260 12.729200 20.703500
12   1  0.8576 12.683800 16.657200 20.533000
13   1  0.8007  6.404530 20.254500 20.679900
14   1  0.8007  8.630900  1.674650 19.989600
15   1  0.6901 10.302600  5.319830 19.673700
16   1  0.8043 12.716400  9.070620 20.544700
17   1  0.8296 14.329700 12.729700 20.580900
18   1  0.8149  0.010490 16.047300 20.782100
19   1  0.7466 10.801800 20.356400 20.285700
20   1  0.7530 12.809100  1.610820 20.042400
21   1  0.8480 14.506300  5.726280 19.971200
22   1  0.8133  0.108337  8.841920 20.597100
23   1  0.8186 15.093900 20.088000 20.594600
24   1  0.8013  0.243924  1.706810 20.295800
25   1  0.8448  1.951490 12.961200 26.402900
26   1  0.8445  4.177230 16.436400 26.787600
27   1  0.8098  2.030000  5.804870 26.644300
28   1  0.8455  3.834360  9.147520 26.108000
29   1  0.8742  5.844330 12.846600 26.437400
30   1  0.7852  8.290420 16.107500 26.722200
31   1  0.7949  2.207060 19.923700 26.425900
32   1  0.8131  4.284430  2.219180 26.564300
33   1  0.8097  6.311520  5.886060 26.916600
34   1  0.8349  8.829640  9.094500 26.537000
35   1  0.7291 10.497300 13.008300 25.942600
36   1  0.7679 12.418200 16.333300 26.660500
37   1  0.8475  6.228820 20.362900 27.010200
38   1  0.7393  8.656400  1.958170 26.470100
39   1  0.8430 10.939900  5.711740 25.961200
40   1  0.7941 12.966100  9.598270 26.228300
41   1  0.7357 14.674400 13.073100 26.069100
42   1  0.6778  0.266095 16.242200 26.458900
43   1  0.7278 10.888500 20.084300 26.614700
44   1  0.6766 12.492600  1.759840 26.643500
45   1  0.7648 14.488100  5.184050 26.395100
46   1  0.7390  0.028237  9.041510 26.360700
47   1  0.8030 14.530000 20.005900 26.187400
48   1  0.7542  0.492371  1.609170 26.421500
49   1  0.7685  2.596860 14.903200  1.635850
50   1  0.7948  4.208710 19.409000  1.470310
51   1  0.7134  1.904250  8.005350  1.223000
52   1  0.7763  4.230640 11.510400  1.391770
53   1  0.6642  6.249910 15.305000  1.664150
54   1  0.7818  8.075950 18.635900  1.517650
55   1  0.8609  2.369260  0.662096  1.258920
56   1  0.7908  3.949490  5.169900  1.388670
57   1  0.7807  6.090450  7.997610  1.694850
58   1  0.7711  8.615270 11.440000  1.275160
59   1  0.6919  9.875230 14.887300  1.862470
60   1  0.8373 12.328800 18.515300  1.382650
61   1  0.8187  6.618890  0.976695  1.708240
62   1  0.8919  8.359660  4.697430  1.071910
63   1  0.8937 10.800900  8.180210  1.289310
64   1  0.7513 12.788600 12.010000  1.818580
65   1  0.8128 14.887800 15.113700  1.765840
66   1  0.6820  0.115352 18.258900  0.264241
67   1  0.8255 10.416000  0.389244  1.830310
68   1  0.8567 12.331300  4.181420  1.287060
69   1  0.6898 14.781300  8.044550  1.595670
70   1  0.7290 16.559300 11.325900  1.536810
71   1  0.8724 15.225800 21.578300  1.819980
72   1  0.8714 16.356300  4.087660  1.427420
73   1  0.6959  2.658750 14.386700  7.369240
74   1  0.8036  4.211600 18.276400  7.814280
75   1  0.8101  2.650870  6.948940  6.864480
76   1  0.6671  4.427300 10.876000  7.552660
77   1  0.9328  6.239210 14.616400  7.474220
78   1  0.8284  8.521900 18.631800  7.811260
79   1  0.7629  1.961900  0.475761  7.427560
80   1  0.8288  4.245080  3.284350  6.512360
81   1  0.7495  6.048560  7.489570  6.943770
82   1  0.9209  8.263050 11.230600  7.220230
83   1  0.8360 10.737100 15.402200  7.385570
84   1  0.8038 13.026200 18.842100  7.358350
85   1  0.7459  6.568570  0.289541  7.439160
86   1  0.8014  8.387270  4.801250  7.228450
87   1  0.7899 11.048600  8.008930  7.590420
88   1  0.7792 12.440500 11.474200  7.526610
89   1  0.7479 14.845400 14.822100  7.355390
90   1  0.8099  0.161013 18.445700  7.595230
91   1  0.8087 10.429200  1.077820  7.518920
92   1  0.7319 12.820600  4.397490  7.321840
93   1  0.8067 15.091000  8.459890  7.520530
94   1  0.7255  0.226437 11.814200  7.635050
95   1  0.7457 14.765200  0.903141  7.691330
96   1  0.7385  0.449008  3.967240  7.566060
97   1  0.7793  0.156733 13.139600 11.032500
98   1  0.7775  2.521770 17.402100 10.654400
99   1  0.8491 16.659300  6.754300 11.789300
100  1  0.7948  2.682590 10.311200 11.207100
101  1  0.6824  4.701460 13.949900 10.879400
102  1  0.7581  6.747680 17.220800 11.278400
103  1  0.8508  0.295551 20.730800 11.015800
104  1  0.8898  1.871840  3.225880 11.026100
105  1  0.8731  4.237180  6.630520 11.231900
106  1  0.6747  6.298610 10.385100 10.453200
107  1  0.8313  8.755590 13.986900 10.974400
108  1  0.7057 10.742100 17.284900 10.695400
109  1  0.7143  4.547640 21.530900 10.413100
110  1  0.7404  6.241120  3.262900 11.213300
111  1  0.7318  8.970920  6.922640 10.730400
112  1  0.7777 10.731200 10.079400 10.322700
113  1  0.7457 12.977000 14.275200 10.850300
114  1  0.9197 15.644100 17.532600 12.696900
115  1  0.7933  8.321590 21.144300 10.855100
116  1  0.8035 10.352200  2.962510 11.427200
117  1  0.7596 12.942400  6.447980 11.149600
118  1  0.8142 14.619100  9.820760 11.285800
119  1  0.8900 12.810100 20.935400 10.722000
120  1  0.7502 14.369000  3.272590 10.903700
121  1  0.6894  0.429985 13.914200 17.535100
122  1  0.7591  2.188180 17.247500 17.113900
123  1  0.7887  0.171537  6.231420 16.853000
124  1  0.8232  2.020360 10.594500 16.963500
125  1  0.7217  4.590960 13.915800 17.050300
126  1  0.8287  6.749290 17.725500 17.190400
127  1  0.7023  0.227973 20.598300 17.053700
128  1  0.7367  1.774680  2.661420 16.708000
129  1  0.8346  3.801180  6.585600 17.145800
130  1  0.8105  5.860820 10.224700 17.651700
131  1  0.7198  8.209460 14.348700 17.371600
132  1  0.8126 10.763300 17.223700 17.105800
133  1  0.7459  4.049400 21.459500 17.501700
134  1  0.8883  5.990480  2.792480 16.949900
135  1  0.7251  8.115030  6.133410 16.887800
136  1  0.7561  9.623560 10.669100 17.448800
137  1  0.7472 12.747100 13.560800 16.808700
138  1  0.7376 15.014400 16.556600 16.891600
139  1  0.7874  8.798010 21.004100 16.873200
140  1  0.7657 10.486700  3.032100 16.829900
141  1  0.7597 12.260200  6.830210 17.241700
142  1  0.7996 14.738900 10.384100 17.151800
143  1  0.8297 12.818400 21.047900 16.590900
144  1  0.8253 14.740700  3.132900 16.873200
145  2 -0.8289  0.399486 13.883300 28.268700
146  2 -0.9011  2.735340 18.053200 28.205700
147  2 -0.9123  0.008637  6.554880 27.826700
148  2 -0.8362  2.321530 10.790400 27.734500
149  2 -0.9192  4.324980 14.164100 28.136900
150  2 -0.8547  6.255340 17.610300 28.261800
151  2 -0.8858  0.472519 21.192400  0.044922
152  2 -0.7940  2.322630  3.401810 28.443400
153  2 -0.9447  4.306610  7.314870 28.159000
154  2 -0.7219  6.154590 10.321100 27.677000
155  2 -0.8691  8.550720 13.524800 27.836400
156  2 -0.8412 10.101900 17.569600 28.352900
157  2 -0.9261  4.383370 21.538000 28.228400
158  2 -0.8113  6.392620  3.553480 28.131300
159  2 -0.8194  8.682480  6.867860 28.051000
160  2 -0.8274 10.527200 10.438300 28.170700
161  2 -0.8223 13.115100 14.175600 28.371700
162  2 -0.8568 14.184700 17.596300 28.053500
163  2 -0.8730  8.320270 21.311100  0.141727
164  2 -0.8642 10.250600  3.164120  0.304522
165  2 -0.8033 12.460000  7.143880 28.050600
166  2 -0.8567 14.644800 10.462700 28.094700
167  2 -0.8277 13.157400 20.676600 28.439500
168  2 -0.8367 14.336200  3.082030 28.284800
169  2 -0.5448  1.936580 15.216500 25.032100
170  2 -0.3421  4.395710 18.924600 24.879200
171  2 -0.3498  2.486660  7.613360 24.488600
172  2 -0.3081  4.355470 11.683200 24.577700
173  2 -0.3809  5.924970 15.217800 24.860300
174  2 -0.3221  8.458930 19.597300 25.387100
175  2 -0.3623  2.412830  0.547737 24.745700
176  2 -0.3554  3.705060  4.486090 25.064800
177  2 -0.2703  5.998230  7.521260 24.508600
178  2 -0.2874  7.802930 11.948800 24.657400
179  2 -0.3629 10.015600 15.669700 24.644300
180  2 -0.2506 12.907600 18.848500 24.310600
181  2 -0.2989  6.345190  0.618123 24.900500
182  2 -0.4316  8.614220  4.538620 25.362900
183  2 -0.4914 10.727500  8.049400 25.117500
184  2 -0.3340 12.457700 11.511900 23.953500
185  2 -0.3949 13.915400 15.559700 24.637800
186  2 -0.3998  0.098254 19.104300 24.822000
187  2 -0.3924 10.868900  0.514177 24.706700
188  2 -0.3818 12.691200  4.275950 24.547500
189  2 -0.2778 14.530300  8.255810 24.266300
190  2 -0.4005 16.273400 11.077400 24.808300
191  2 -0.4442 14.909100  0.682989 25.118000
192  2 -0.3114 16.595700  4.390980 24.836300
193  2 -0.4075 16.227600 13.586300 22.431000
194  2 -0.3855  1.902480 17.968500 22.704900
195  2 -0.2845  0.115237  6.704810 22.249300
196  2 -0.4163  1.783160 10.041800 22.215900
197  2 -0.4159  4.002180 13.919200 22.334300
198  2 -0.3780  6.874690 18.064200 22.290700
199  2 -0.2316  0.379704 21.426400 22.754400
200  2 -0.3043  2.488020  2.672020 22.092500
201  2 -0.3685  3.320020  6.156370 21.886200
202  2 -0.3869  5.471870 10.263100 21.744300
203  2 -0.4304  8.315470 14.171500 22.057400
204  2 -0.3426 10.799900 17.974400 22.069500
205  2 -0.2742  4.392340 21.218700 22.859400
206  2 -0.3754  5.990430  2.768360 21.782600
207  2 -0.3192  7.860620  6.274370 22.095400
208  2 -0.3570  9.572670 10.497200 22.026700
209  2 -0.3762 12.068300 14.134100 22.021400
210  2 -0.3529 15.153900 17.890200 22.125600
211  2 -0.3999  9.030000 21.156100 21.907100
212  2 -0.2639 10.028100  3.995110 21.989300
213  2 -0.3521 12.789500  6.305190 21.831300
214  2 -0.4437 14.707400 10.179400 21.840200
215  2 -0.4150 13.109500 21.080700 21.938000
216  2 -0.2498 14.597800  2.805420 22.078900
217  2 -0.9649  2.189010 12.610900  9.373350
218  2 -0.9423  4.639590 16.087700  8.979990
219  2 -0.6996  1.937320  5.543790  9.956090
220  2 -0.7980  4.002290  8.566750  9.464340
221  2 -0.9128  6.802520 12.932800  9.092370
222  2 -0.8519  8.474480 16.146100  9.127730
223  2 -0.8769  2.261800 19.657100  9.118920
224  2 -0.8294  3.881310  2.460320  9.121040
225  2 -0.7739  6.139850  5.754130  8.816190
226  2 -0.8751  8.675980  9.180380  8.768470
227  2 -0.7604 10.344300 12.641200  9.002580
228  2 -0.8134 13.035000 16.232400  8.794680
229  2 -0.9094  6.455810 19.855900  9.410170
230  2 -0.8223  8.759930  1.784110  9.354830
231  2 -0.8476 10.651500  5.450990  8.723640
232  2 -0.9261 13.034600  8.830140  9.457140
233  2 -0.8662 14.526500 12.184400  9.350450
234  2 -0.6938 16.437300 16.507900  9.983030
235  2 -0.7524 10.910700 19.940300  8.926340
236  2 -0.8314 12.535800  1.773680  9.407890
237  2 -0.7913 14.978500  5.679970  9.494420
238  2 -0.6210  0.497323  8.860200  9.600680
239  2 -0.7792 14.918200 19.995100  9.140720
240  2 -0.8552  0.132682  1.662990  9.379580
241  2 -0.3505  0.204768 13.798500  5.477850
242  2 -0.3376  2.091920 17.768000  5.852700
243  2 -0.2758  0.030322  6.690550  5.524690
244  2 -0.4228  2.067950  9.801330  6.492310
245  2 -0.4474  4.650090 13.335300  5.842130
246  2 -0.3383  6.365100 17.110700  6.235540
247  2 -0.4049 16.373400 20.840400  6.141290
248  2 -0.5311  1.969790  2.510710  5.884450
249  2 -0.5458  4.278770  6.029550  5.434820
250  2 -0.3817  6.691240 10.239300  5.470570
251  2 -0.2798  8.239480 13.440300  5.782480
252  2 -0.3320 10.405200 17.481900  5.817360
253  2 -0.3571  4.430150 21.450400  5.567660
254  2 -0.5003  6.965240  2.716230  6.196620
255  2 -0.2654  8.742280  7.017320  5.383300
256  2 -0.3711 10.271200 10.292700  5.983350
257  2 -0.3963 12.128000 13.859700  5.903060
258  2 -0.3664 15.014600 16.690600  5.723910
259  2 -0.4871  8.791340 20.967000  6.460550
260  2 -0.2512 10.679500  3.924880  5.248920
261  2 -0.3948 13.315000  6.929170  6.041960
262  2 -0.3766 14.270200 10.782400  5.649760
263  2 -0.2607 12.475400 21.243300  5.329950
264  2 -0.3896 15.184500  3.000510  5.740010
265  2 -0.3105  2.095870 12.259100  3.315460
266  2 -0.2957  4.331600 16.236400  3.730680
267  2 -0.5205  1.620740  5.747560  2.503030
268  2 -0.4935  3.940230  9.240070  2.806610
269  2 -0.3689  6.490840 12.702100  3.124830
270  2 -0.3333  8.395000 16.428700  3.642350
271  2 -0.3092  1.807400 19.929100  2.903830
272  2 -0.4062  4.340170  2.131560  2.755780
273  2 -0.4014  6.687570  5.795150  3.083230
274  2 -0.3212  8.610860  9.262470  3.018440
275  2 -0.3140 10.222700 12.437200  3.446390
276  2 -0.3267 11.950500 15.888000  3.304990
277  2 -0.3682  6.377440 19.994800  3.457780
278  2 -0.3331  7.927870  2.801590  3.077960
279  2 -0.3645 10.549900  6.165910  2.661620
280  2 -0.3388 12.436000  9.153960  3.278230
281  2 -0.4072 14.851400 13.148900  3.410730
282  2 -0.3761  0.631837 16.413200  2.841470
283  2 -0.4561 10.435000 20.020700  2.927390
284  2 -0.3794 12.751800  1.662430  2.789600
285  2 -0.3774 14.346300  5.252760  2.895900
286  2 -0.3056  0.513777  9.496620  3.618220
287  2 -0.3018 14.274500 19.652800  3.324520
288  2 -0.3222  0.329023  1.970360  2.963140
289  2 -0.7488  2.682410 15.079800 19.145000
290  2 -0.7354  4.672140 18.510700 19.072200
291  2 -0.9239  1.770600  7.415010 18.674100
292  2 -0.8299  3.406270 11.266000 19.203300
293  2 -0.7631  6.171650 15.586700 19.185700
294  2 -0.8143  8.426020 18.720400 19.005100
295  2 -0.9847  2.050490  0.479388 19.104100
296  2 -0.8627  3.942260  4.040420 18.373500
297  2 -0.8994  6.281770  7.848150 18.522400
298  2 -0.8425  7.624620 11.804400 19.172400
299  2 -0.8258 10.419300 15.448100 19.120800
300  2 -0.7522 13.487800 18.782800 18.379000
301  2 -0.9135  6.283420  0.586581 18.793000
302  2 -0.9257  7.972270  3.720030 18.541900
303  2 -0.8115 10.172900  8.295330 19.035100
304  2 -0.8080 12.310500 11.538700 18.853800
305  2 -0.8804 14.407400 15.202900 19.289700
306  2 -0.8067  0.646937 18.278200 19.307100
307  2 -0.9708 10.512400  0.583571 18.293700
308  2 -0.8742 12.495700  4.192990 18.772600
309  2 -0.8825 14.377600  7.673800 18.509300
310  2 -0.8442 16.631100 11.606900 19.091500
311  2 -0.8421 14.897600  0.526935 18.572900
312  2 -0.9594 16.289000  4.117450 18.617300
313  2 -0.4004  2.092920 13.108000 15.618900
314  2 -0.3262  4.279170 16.681500 15.439800
315  2 -0.4112  2.179180  5.369780 15.280300
316  2 -0.4520  4.080770  9.173190 15.944000
317  2 -0.4677  6.742660 12.236000 16.044100
318  2 -0.5026  8.758980 16.573200 15.789300
319  2 -0.3126  2.164320 19.959000 15.235100
320  2 -0.3649  4.151060  2.253970 15.381200
321  2 -0.3607  5.767280  5.307460 15.436000
322  2 -0.1316  8.204200  8.964610 15.043100
323  2 -0.2886 10.187100 12.824200 15.413100
324  2 -0.4604 12.788500 16.076000 15.555900
325  2 -0.2838  5.870290 20.375800 15.622200
326  2 -0.3796  8.030280  1.686170 15.214800
327  2 -0.4167 10.550000  5.707670 15.270100
328  2 -0.2644 12.062400  9.642430 15.587500
329  2 -0.4430 15.359300 12.570400 15.706400
330  2 -0.4728  0.465049 16.011400 15.299900
331  2 -0.3601 10.811300 19.461200 15.279400
332  2 -0.4220 12.425200  1.941150 15.447600
333  2 -0.3229 14.086900  5.190410 15.082000
334  2 -0.4031 16.514700  9.059960 15.660800
335  2 -0.4076 14.773100 19.272500 15.180800
336  2 -0.3445 16.267100  1.358200 15.097500
337  2 -0.3229  2.335570 15.149400 12.671700
338  2 -0.2172  4.181410 19.496400 12.532200
339  2 -0.3396  2.081860  8.049100 13.035900
340  2 -0.2992  4.870330 11.428500 13.078700
341  2 -0.3859  6.833000 15.285000 13.034800
342  2 -0.3376  8.115550 18.921000 12.869500
343  2 -0.3078  1.859420  1.006730 12.587300
344  2 -0.3118  3.678730  4.082500 12.769400
345  2 -0.3273  6.420640  8.190790 12.322600
346  2 -0.2938  8.682480 10.944700 12.072600
347  2 -0.3992 10.412400 14.959700 12.550400
348  2 -0.4318 12.908200 18.516100 12.059300
349  2 -0.3714  6.200250  0.812228 12.564000
350  2 -0.4336  8.037480  4.857780 12.559700
351  2 -0.3676 10.673200  8.262370 12.345400
352  2 -0.2747 12.546300 11.759200 12.676900
353  2 -0.3699 14.587700 15.047600 12.930700
354  2 -0.5058  1.172760 18.833200 12.404100
355  2 -0.4218 10.722900 21.557900 12.104500
356  2 -0.4827 12.368200  4.077240 12.564000
357  2 -0.4212 14.405500  8.029180 13.129600
358  2 -0.4059  0.510898 11.287800 12.657100
359  2 -0.2857 14.368600  0.329473 12.769000
360  2 -0.4105  0.014916  4.197200 12.890200

