Generated by pymatgen.io.lammps.data.LammpsData

78  atoms

 2  atom types

0.000000 11.792866  xlo xhi
0.000000 10.584991  ylo yhi
0.000000 17.144600  zlo zhi
-6.111247 0.000000 0.000000  xy xz yz

Masses

1  106.42
2   78.96

Atoms

1   1 -1.973550  8.628200  9.346620
2   1  3.911960  8.959750  3.501620
3   1  4.572960  1.189580  0.570883
4   1  2.856410  3.818650  9.650460
5   1  6.531320  3.230350 13.443000
6   1  8.084180  0.057779  2.560470
7   1  8.552560  2.505100  9.469480
8   1 -1.161130  2.248090 13.279600
9   1  3.506920  8.696570 11.933500
10  1 -0.181906  1.841980  2.823300
11  1 -0.194029  5.592400 16.036600
12  1 -4.294340  6.498360 14.277000
13  1  2.861090  0.854044 14.835200
14  1  0.255112  4.797950  1.310260
15  1  0.841292 -0.171383  0.785522
16  1  4.438160  3.361350  2.249030
17  1 -4.454040  8.284080  8.570080
18  1  2.478040  8.557780  1.131570
19  2  1.168400  5.430480 12.249700
20  2 -0.800502  3.414490 15.334600
21  2  3.108090 -0.305138 11.782400
22  2  0.672884  7.738710 16.250100
23  2  7.495690  5.067890 10.234500
24  2 -2.039310  5.317130  1.497590
25  2  2.029500  1.769730 11.087400
26  2 -3.603650  8.045290 12.972000
27  2  4.529750  2.542540 15.961400
28  2  4.491980  7.089480  4.448830
29  2  6.052520  3.384270 11.351000
30  2  0.307982  0.399646 15.161200
31  2 -2.227360  8.167290  6.248620
32  2  2.059870 -0.434693  4.968930
33  2  7.991920  2.192470  6.004710
34  2  8.998940  2.547900 15.106700
35  2 -0.616013  3.946760  3.341320
36  2 10.537100 -0.386511  5.638760
37  2  2.192220  1.719140  8.294120
38  2  2.478150  9.122150 14.398000
39  2  2.271650  1.921980 16.868000
40  2  9.473500  2.108160  2.980940
41  2  5.335030  4.122200  5.572670
42  2  0.940073  7.348570 11.107800
43  2  4.746680  7.962070  9.119840
44  2  2.546710  0.862439  3.148680
45  2  6.169380  6.694310  7.185780
46  2  1.198280  3.618200  5.751570
47  2  3.507450  6.618650 14.434100
48  2  2.925990 -0.117853  8.773710
49  2 -3.931000  8.496460  0.202402
50  2  2.877110  5.012540  4.222500
51  2  4.611980  4.574310  8.237120
52  2  8.463780 -0.689006  6.664190
53  2  7.440960  4.537510  4.740970
54  2  3.459880  6.596170 16.800800
55  2 -3.764010  6.872480  3.810600
56  2  0.704943  9.790070 12.096700
57  2 -2.768400  5.884640 11.756000
58  2 -1.687090  3.073830  7.021420
59  2  7.738770  4.026470  1.013730
60  2  5.803080  0.933549  2.518810
61  2  5.112100  9.000340 13.928500
62  2  1.342400  6.615660  3.835690
63  2  9.096540  0.906072 11.453300
64  2 -1.306300  2.957350 11.034700
65  2  6.297950  5.805890  2.607830
66  2  5.547420  2.014590  6.469270
67  2  7.523480  0.212537  8.907760
68  2 -0.809515  7.146350  5.025260
69  2  0.102217  4.964480  7.128120
70  2 -2.134790  9.449100  3.367820
71  2  5.579160  1.377670 12.882300
72  2  6.169030 -0.227712 14.760700
73  2  7.025920  4.697890 15.734400
74  2  7.621980 -0.235270 17.198100
75  2  5.378660 -0.683632  7.462820
76  2 -1.299950  7.137840 14.737300
77  2 -1.447970  9.301930 17.047800
78  2  3.199480  6.175740 10.548600

