Generated by pymatgen.io.lammps.data.LammpsData

360  atoms

  2  atom types

0.000000 16.871067  xlo xhi
0.000000 22.058404  ylo yhi
0.000000 29.928687  zlo zhi

Masses

1  208.9804
2   78.9600

Atoms

1    1  0.7316  2.195240 13.528900 20.876800
2    1  0.7164  4.149620 16.906000 21.486600
3    1  0.7557  1.845710  6.256220 21.232900
4    1  0.7498  4.123140  9.663310 20.992000
5    1  0.7826  6.411630 13.522400 21.211000
6    1  0.7607  8.188640 17.029900 21.047000
7    1  0.7038  2.155310 20.594900 21.248200
8    1  0.7790  4.330150  2.555260 21.026700
9    1  0.7567  6.074430  6.168290 20.874000
10   1  0.7099  8.631960  9.526920 21.511600
11   1  0.7646 10.420200 13.877100 21.121900
12   1  0.7668 12.545300 17.180800 20.909200
13   1  0.7651  6.299110 21.086500 20.967600
14   1  0.7501  8.434400  2.139420 20.888300
15   1  0.7542 10.641500  6.042750 21.199100
16   1  0.7214 12.666900  9.928660 21.384700
17   1  0.8080 14.763800 13.681700 21.336100
18   1  0.7549 16.615500 17.302100 20.992300
19   1  0.7677 10.361000 20.754300 20.992200
20   1  0.7745 12.348600  2.172880 21.169100
21   1  0.7817 14.593700  5.862120 21.035900
22   1  0.7648 16.649800  9.732490 21.034800
23   1  0.7648 14.232400 20.956400 20.922400
24   1  0.7411 -0.612669  2.331740 21.437400
25   1  0.7178  2.185560 13.192300 28.070200
26   1  0.7576  4.367450 17.161700 28.462600
27   1  0.7607  2.070260  5.948790 28.521200
28   1  0.7745  4.098580  9.585490 28.239700
29   1  0.7574  6.240750 13.147900 28.673200
30   1  0.7084  8.318220 17.010300 28.366900
31   1  0.7843  2.216850 20.724900 28.374500
32   1  0.7382  4.289490  2.108680 28.046600
33   1  0.7438  6.306860  5.718770 27.909900
34   1  0.7400  8.341610  9.391970 28.342200
35   1  0.7681 10.523600 13.136300 28.074600
36   1  0.7406 12.924000 16.983400 28.283200
37   1  0.7159  6.599880 20.302400 28.443900
38   1  0.7033  8.491700  2.098230 28.435000
39   1  0.7511 10.750100  6.169860 27.989000
40   1  0.7292 12.963500  9.657810 28.401400
41   1  0.7527 14.888000 13.076600 28.488800
42   1  0.7575  0.088121 16.842700 28.616700
43   1  0.7104 10.600400 20.582400 28.331300
44   1  0.7600 12.724200  2.268920 28.294900
45   1  0.7038 15.192400  6.015390 28.559200
46   1  0.7240 16.977600  9.503260 28.217000
47   1  0.7345 14.814200 20.603800 28.662100
48   1  0.7283 16.998800  2.162720 28.057700
49   1  0.7895  2.239170 15.549200  1.915840
50   1  0.8189  4.223040 19.355400  2.023270
51   1  0.8526  2.266260  8.498040  1.796680
52   1  0.7896  4.330280 12.203100  1.947880
53   1  0.7755  6.400210 15.737400  1.705020
54   1  0.7721  8.549300 19.303000  2.125210
55   1  0.7812  2.060240  1.051780  1.950950
56   1  0.7967  4.143090  4.605760  1.897970
57   1  0.7762  6.473260  8.430240  1.812750
58   1  0.7737  8.524320 11.924100  1.933960
59   1  0.7762 10.668000 15.588000  2.117290
60   1  0.8027 12.754900 19.469800  1.939330
61   1  0.7849  6.333830  0.969008  1.785540
62   1  0.7864  8.139510  4.701670  1.435350
63   1  0.7744 10.564300  8.039990  1.918830
64   1  0.7789 12.613200 11.892700  1.747050
65   1  0.8103 14.773900 15.828100  1.897210
66   1  0.7844 16.999300 19.318300  1.797010
67   1  0.8209 10.720600  1.034950  1.905780
68   1  0.7635 12.594800  4.648640  1.719420
69   1  0.7691 14.652900  8.336940  1.787720
70   1  0.8103  0.122654 11.986300  1.787460
71   1  0.7693 14.925900  1.093370  1.639690
72   1  0.7440  0.198870  4.714690  2.083630
73   1  0.7931  2.119260 15.638900  8.044000
74   1  0.8007  4.353340 19.476900  7.983250
75   1  0.7602  2.187070  8.274100  8.105200
76   1  0.7666  4.307700 11.848500  8.041400
77   1  0.7998  6.384000 15.764900  7.915310
78   1  0.7749  8.418000 19.571400  7.954640
79   1  0.8020  2.117630  1.005020  8.211940
80   1  0.7791  4.501480  4.850650  8.357110
81   1  0.7440  6.314320  8.418370  8.212460
82   1  0.7796  8.789260 11.843500  8.097430
83   1  0.7988 10.639900 15.627900  8.081760
84   1  0.8111 12.779200 19.397900  8.313830
85   1  0.7253  6.098890  1.002160  8.244530
86   1  0.8074  8.319550  4.910690  8.201030
87   1  0.8163 10.717900  8.327140  8.180740
88   1  0.7891 12.606100 12.512700  8.060260
89   1  0.7641 14.738200 15.755300  8.137590
90   1  0.7607 -0.021502 19.308100  8.072710
91   1  0.7673 10.512000  0.985524  8.221060
92   1  0.7375 12.740900  4.586380  8.283440
93   1  0.7822 14.683300  8.081700  8.154270
94   1  0.7782 16.872900 12.060400  8.220710
95   1  0.7763 14.909300  1.087730  8.309140
96   1  0.8075  0.316190  4.946660  8.187010
97   1  0.7968 16.908500 14.322400 11.657200
98   1  0.8079  2.000560 18.338200 11.385500
99   1  0.7791 16.876800  7.255670 11.176300
100  1  0.7676  2.102080 10.922000 11.434300
101  1  0.7962  4.074290 14.553600 11.391000
102  1  0.7795  6.270600 17.998600 11.538800
103  1  0.7311 -0.278631 22.164400 11.642200
104  1  0.8236  2.115790  3.304820 11.599600
105  1  0.7772  4.182890  7.464130 11.598400
106  1  0.7513  6.306710 10.900500 11.395200
107  1  0.7696  8.516270 14.581300 11.507000
108  1  0.8010 10.310900 18.312300 11.552500
109  1  0.7709  4.419170 -0.049404 11.543000
110  1  0.7869  6.413750  3.746010 11.725200
111  1  0.8343  8.272660  7.213010 11.824800
112  1  0.7344 10.486700 10.981000 11.756000
113  1  0.8134 12.660300 14.594000 11.678900
114  1  0.7809 14.505300 18.310800 11.502200
115  1  0.7434  8.361120 21.665800 11.459300
116  1  0.7832 10.535000  3.668380 11.640700
117  1  0.7284 12.693900  7.168920 11.529500
118  1  0.7652 14.842100 10.546500 11.775900
119  1  0.7613 12.621000 21.778800 11.758500
120  1  0.7543 14.463000  3.035690 11.679400
121  1  0.7856 17.035500 14.781200 17.576800
122  1  0.7719  1.979300 18.536100 17.539200
123  1  0.7949 16.905000  7.147320 17.982400
124  1  0.7925  1.753720 11.099700 17.769800
125  1  0.8163  4.066610 14.830100 17.653100
126  1  0.7921  6.343570 18.175500 17.466100
127  1  0.7764 -0.048255 22.064800 17.575900
128  1  0.7952  2.065190  3.652940 17.882000
129  1  0.7389  3.864920  7.347200 17.662600
130  1  0.8235  6.306890 11.012600 17.814400
131  1  0.8020  8.440560 14.576500 17.476200
132  1  0.8534 10.341300 18.413400 17.805200
133  1  0.8087  4.197230  0.101014 17.786600
134  1  0.7611  6.244990  3.745230 17.840200
135  1  0.7882  8.269060  7.291160 17.631500
136  1  0.7923 10.790800 11.101500 18.001800
137  1  0.8102 12.653600 14.953400 17.667200
138  1  0.8503 14.534900 18.297100 17.915800
139  1  0.7883  8.093830 22.037900 17.523200
140  1  0.7937 10.325400  3.563920 17.639400
141  1  0.7990 12.740100  7.047440 17.796200
142  1  0.7723 14.768800 11.181600 17.469200
143  1  0.8599 12.453700 22.226200 17.675000
144  1  0.8455 14.677800  3.459070 17.847500
145  2 -0.8799 16.944500 14.507500  0.222701
146  2 -0.8775  2.257570 18.178000  0.042574
147  2 -0.9035 17.067000  7.183240  0.408759
148  2 -0.8875  2.106570 10.735600  0.206471
149  2 -0.9022  4.228160 14.573800  0.146495
150  2 -0.9238  6.305830 18.316900  0.337926
151  2 -0.9074 16.956300 -0.180300  0.110728
152  2 -0.8816  2.321350  3.446720  0.151088
153  2 -0.8370  4.079940  7.118160 -0.065066
154  2 -0.8960  6.036950 10.616400  0.206408
155  2 -0.8384  8.532200 14.208000  0.141533
156  2 -0.8546 10.594700 17.967400  0.159661
157  2 -0.8459  4.167440 21.681700  0.099589
158  2 -0.9061  6.273610  3.441680 -0.066737
159  2 -0.8902  8.434760  7.017930 -0.063041
160  2 -0.8516 10.593100 10.759300  0.130425
161  2 -0.8295 12.819600 14.253800 -0.006713
162  2 -0.9137 14.813900 18.090900  0.418403
163  2 -0.8830  8.513020 21.736200  0.322628
164  2 -0.8693 10.701900  3.413660  0.089725
165  2 -0.9051 12.692700  7.175220  0.127081
166  2 -0.9330 14.866600 10.812300  0.138556
167  2 -0.8986 12.639200 -0.354398  0.362693
168  2 -0.8881 14.814500  3.301210 -0.150081
169  2 -0.2542  2.489700 15.758200 26.254600
170  2 -0.2932  4.818470 19.211800 26.268700
171  2 -0.3662  2.026860  8.334000 26.594200
172  2 -0.2992  4.173220 11.929500 26.373800
173  2 -0.4039  6.501150 15.530000 26.966300
174  2 -0.2431  8.627980 19.200200 26.124200
175  2 -0.3235  2.229770  0.400406 26.224700
176  2 -0.2923  4.098230  4.496620 26.157400
177  2 -0.3468  6.548160  8.327780 26.390600
178  2 -0.3311  8.370330 12.064500 26.630400
179  2 -0.2157 10.463400 15.763200 26.105500
180  2 -0.3460 12.754500 19.581800 26.709400
181  2 -0.3242  6.504830  0.745428 26.464700
182  2 -0.2779  8.613750  4.398690 26.111400
183  2 -0.4043 10.967200  8.493830 26.576500
184  2 -0.2312 12.987500 12.245500 25.972700
185  2 -0.3852 14.951300 15.463000 26.847200
186  2 -0.3397 16.887600 19.374800 26.834600
187  2 -0.3045 10.569500  1.040910 26.440000
188  2 -0.2303 13.365400  4.786670 26.280300
189  2 -0.2892 14.830900  8.225530 26.354200
190  2 -0.3053 -0.001736 11.804700 26.223100
191  2 -0.3067 14.681900  1.074260 26.403500
192  2 -0.3286 17.189200  5.012290 26.447300
193  2 -0.2855  0.087717 15.020400 23.030800
194  2 -0.2800  1.636730 18.305700 23.294800
195  2 -0.3242 16.852800  7.340080 22.907200
196  2 -0.3063  2.311810 11.004900 22.757200
197  2 -0.3603  3.902580 14.398100 22.889600
198  2 -0.2744  6.493480 18.487400 23.099000
199  2 -0.2607 -0.029592 -0.159094 23.248700
200  2 -0.2664  1.923020  3.408170 23.145800
201  2 -0.3391  3.936200  7.383320 22.851900
202  2 -0.3030  6.272820 11.187400 22.945300
203  2 -0.4076  8.410820 14.716000 22.777800
204  2 -0.2818 10.218100 18.273800 22.868500
205  2 -0.3140  4.258450  0.137437 22.949500
206  2 -0.3036  6.108020  3.491220 22.828900
207  2 -0.3500  8.211520  7.170870 23.061100
208  2 -0.2766 10.823400 11.551100 23.416500
209  2 -0.3882 12.792600 14.840800 22.748300
210  2 -0.3337 14.360700 18.507200 22.723400
211  2 -0.3214  8.516670 -0.320442 22.808100
212  2 -0.3418 10.396800  3.460130 22.786500
213  2 -0.3151 12.834400  6.958370 23.054800
214  2 -0.3482 14.837400 10.857100 22.941000
215  2 -0.3958 12.247500 21.841500 22.744900
216  2 -0.3829 14.111700  3.550880 22.831300
217  2 -0.8946  2.158070 13.480300  9.966070
218  2 -0.8296  4.151880 16.946100  9.727590
219  2 -0.8904  2.155270  6.048080  9.949440
220  2 -0.9537  4.162840  9.621150  9.810070
221  2 -0.8227  6.534140 13.209100  9.469720
222  2 -0.8571  8.364450 16.957700  9.960370
223  2 -0.8209  2.237640 20.711300  9.840910
224  2 -0.8847  4.146820  2.388710  9.706220
225  2 -0.9199  6.523890  5.935720 10.088600
226  2 -0.8532  8.578240  9.551310  9.804680
227  2 -0.9006 10.635800 13.621600  9.950520
228  2 -0.8516 12.649100 16.876200  9.886670
229  2 -0.9109  6.352280 20.525200  9.732650
230  2 -0.8358  8.540980  2.503630  9.964070
231  2 -0.8503 10.415000  6.215750 10.043300
232  2 -0.8096 12.851200  9.842590  9.836320
233  2 -0.8251 14.812700 13.293900  9.998290
234  2 -0.8421 -0.034089 16.983000  9.804250
235  2 -0.8801 10.440100 20.505400  9.773690
236  2 -0.9076 12.685100  2.142600  9.872790
237  2 -0.8927 14.856900  5.804330  9.727240
238  2 -0.8782 16.777900  9.703930  9.741620
239  2 -0.9171 14.658800 20.732900  9.686660
240  2 -0.8693 17.062200  2.384540  9.776560
241  2 -0.3390 17.105900 14.425700  6.214230
242  2 -0.3657  2.193380 18.100200  6.449420
243  2 -0.3872 17.017400  6.962830  6.474210
244  2 -0.3620  2.058580 10.527900  6.425690
245  2 -0.3381  4.196750 14.328300  6.374910
246  2 -0.4106  6.183340 18.277400  6.389850
247  2 -0.2989  0.020679 21.943700  6.268300
248  2 -0.3094  2.523330  3.701670  6.494200
249  2 -0.2896  4.245620  6.857130  6.144080
250  2 -0.3385  6.618790 10.789500  6.327440
251  2 -0.3084  8.446230 14.234400  6.235180
252  2 -0.3417 10.935000 18.153400  6.467890
253  2 -0.3413  3.969740 21.986300  6.270970
254  2 -0.3271  6.090920  3.664320  6.486360
255  2 -0.3749  8.390810  7.150560  6.638800
256  2 -0.3481 10.845100 10.684100  6.455980
257  2 -0.4391 12.532300 14.699600  6.466170
258  2 -0.3474 14.574400 18.145300  6.463030
259  2 -0.3419  8.505440 21.979400  6.255370
260  2 -0.2900 10.561100  3.673900  6.387340
261  2 -0.3899 12.548300  7.156230  6.524450
262  2 -0.2888 14.749000 10.893700  6.496100
263  2 -0.2781 12.660200 21.775200  6.455120
264  2 -0.2854 14.764000  3.271140  6.249320
265  2 -0.3659  2.264040 13.162100  3.611000
266  2 -0.3404  4.292950 16.834100  3.638120
267  2 -0.3155  2.292260  6.034250  3.714220
268  2 -0.3565  4.211780  9.367940  3.538720
269  2 -0.3995  6.458710 13.598200  3.386570
270  2 -0.3655  8.746160 16.806100  3.772600
271  2 -0.3469  1.986010 20.393100  3.666720
272  2 -0.3502  4.385350  2.246140  3.536300
273  2 -0.3135  6.482290  5.933670  3.550690
274  2 -0.3523  8.664620  9.545410  3.661680
275  2 -0.3405 10.687900 13.043800  3.760210
276  2 -0.3382 12.831000 16.957400  3.684050
277  2 -0.3380  6.277710 20.680500  3.750420
278  2 -0.2598  8.241540  2.261480  3.701210
279  2 -0.3639 10.210700  5.504100  3.304110
280  2 -0.2924 12.626500  9.431400  3.796760
281  2 -0.3227 14.789000 13.195200  3.584070
282  2 -0.3502 -0.070035 17.192000  3.592870
283  2 -0.3141 10.643400 20.832200  3.796000
284  2 -0.3266 12.423200  2.034870  3.589610
285  2 -0.3131 14.767500  5.804480  3.841420
286  2 -0.3005 16.765800  9.454220  3.532330
287  2 -0.2708 14.731400 20.761900  3.752780
288  2 -0.3859 16.876600  2.174230  3.603900
289  2 -0.8956  2.071140 16.062000 19.338200
290  2 -0.8337  4.384150 19.675900 19.347800
291  2 -0.9454  1.875700  8.681440 19.302200
292  2 -0.8408  4.200340 12.228200 19.301600
293  2 -0.8809  6.128260 15.798300 19.456700
294  2 -0.8848  8.353400 19.510600 19.489700
295  2 -0.8256  2.073170  1.097380 19.356300
296  2 -0.9289  3.901960  5.014690 19.533700
297  2 -0.8778  6.311090  8.520100 19.348500
298  2 -0.8418  8.516230 12.423900 19.478600
299  2 -0.9105 10.576400 16.111200 19.276000
300  2 -0.9089 12.540400 19.526400 19.222200
301  2 -0.9683  6.268940  1.339320 19.463300
302  2 -0.8708  8.279480  4.871700 19.457100
303  2 -0.8537 10.622200  8.521110 19.547700
304  2 -0.8378 12.574400 12.418700 19.581100
305  2 -0.9029 14.833800 15.980200 19.354400
306  2 -0.8746 16.452300 19.622400 19.401900
307  2 -0.9364 10.451000  1.074950 19.093000
308  2 -0.8957 12.674400  4.777720 19.557000
309  2 -0.8637 14.820900  8.424410 19.429100
310  2 -0.8713 16.588200 12.440300 19.367600
311  2 -0.9384 14.396900  1.164450 19.378600
312  2 -0.8923 16.664900  4.618430 19.506600
313  2 -0.3618  2.043470 13.259600 15.980300
314  2 -0.3741  4.012910 17.003600 15.925100
315  2 -0.2914  1.676460  5.933680 15.882200
316  2 -0.2766  4.000970  9.959830 15.927000
317  2 -0.3414  6.032590 13.294100 16.117200
318  2 -0.4079  8.529670 16.927800 16.037900
319  2 -0.3596  2.138210 20.792000 15.975900
320  2 -0.3987  4.117210  2.544610 16.201600
321  2 -0.3439  6.253410  6.141170 15.826500
322  2 -0.3483  8.614420  9.890450 16.245800
323  2 -0.3665 10.696700 13.369900 16.047400
324  2 -0.3256 12.483400 17.219000 16.094800
325  2 -0.3654  6.126880 20.801600 15.966800
326  2 -0.3655  8.293320  2.504390 15.981900
327  2 -0.3098 10.516700  6.020750 15.908300
328  2 -0.3223 12.608600  9.501800 15.950700
329  2 -0.3572 14.676100 13.613800 15.862200
330  2 -0.3331 16.520100 17.234100 15.933800
331  2 -0.3259 10.396100 20.545600 16.043100
332  2 -0.3720 12.426100  2.512400 16.075700
333  2 -0.3487 14.871300  5.686390 16.324700
334  2 -0.3506 16.785000  9.734890 16.013500
335  2 -0.3023 14.347400 20.787200 15.951500
336  2 -0.3384 -0.073685  2.570650 16.008300
337  2 -0.3306  2.072020 15.688400 13.264200
338  2 -0.3405  4.234560 19.410000 13.121200
339  2 -0.3011  1.834550  8.386490 13.309700
340  2 -0.3708  4.048970 12.217000 12.970000
341  2 -0.3533  6.353290 15.677700 13.330900
342  2 -0.3411  8.453430 19.506400 13.426500
343  2 -0.3981  2.119960  0.810629 13.056400
344  2 -0.3254  4.148160  4.772420 13.381900
345  2 -0.3895  5.971090  8.724030 13.258000
346  2 -0.3540  8.300490 12.195300 13.375100
347  2 -0.3118 10.586300 16.031000 13.409200
348  2 -0.3612 12.493900 19.269100 13.224500
349  2 -0.3247  6.416730  1.003340 13.429500
350  2 -0.3499  8.182870  4.953020 13.458700
351  2 -0.3396 10.313400  8.232820 13.432400
352  2 -0.3581 12.756200 12.020100 13.486400
353  2 -0.3268 14.605400 16.052000 13.249000
354  2 -0.3572 -0.087361 19.551600 13.111700
355  2 -0.3621 10.422800  1.128650 13.148100
356  2 -0.3301 12.573600  4.740640 13.392700
357  2 -0.3339 14.952800  7.811250 13.334900
358  2 -0.3503  0.051154 12.052200 13.455900
359  2 -0.4269 14.382800  0.930291 13.463100
360  2 -0.2880 -0.082122  4.516020 13.066300

