Generated by pymatgen.io.lammps.data.LammpsData

216  atoms

  2  atom types

0.000000 18.096178  xlo xhi
0.000000 18.140645  ylo yhi
0.000000 18.233787  zlo zhi

Masses

1  208.9804
2   78.9600

Atoms

1    1  0.7882 18.479600 18.265100  0.348959
2    1  0.7592  0.162047  0.027838  6.336300
3    1  0.7753 18.850700 18.302800 12.371100
4    1  0.7768 -0.016771  6.022390  0.506931
5    1  0.8406 18.303600  5.885150  6.419990
6    1  0.8045 18.252300  6.048730 12.420900
7    1  0.7842 18.489000 12.068600 18.562100
8    1  0.8047  0.324737 12.260000  6.243130
9    1  0.7601  0.337692 12.438400 12.590100
10   1  0.7838  6.114350 18.451000 18.136900
11   1  0.9042  6.149850  0.205229  6.738720
12   1  0.8595  6.721610  0.424805 12.286900
13   1  0.7642  5.909790  5.962200 18.618200
14   1  0.7771  6.611330  6.109530  6.971020
15   1  0.7985  5.972410  6.422150 12.448600
16   1  0.8045  5.980020 12.180700 18.259300
17   1  0.7506  6.375230 12.176100  6.406680
18   1  0.8003  6.549630 12.522800 12.729000
19   1  0.8293 12.308000 18.385000  0.418873
20   1  0.7297 12.362300 18.248600  6.334230
21   1  0.8064 12.690100  0.019981 12.569900
22   1  0.7388 11.830200  6.388990  0.153094
23   1  0.8346 12.298000  6.422680  6.325750
24   1  0.7961 12.171500  5.854210 12.673800
25   1  0.7405 11.918700 12.307300 18.551800
26   1  0.7830 12.153900 11.950300  6.166870
27   1  0.8371 12.365700 12.490300 12.715200
28   1  0.8545 -0.001909  3.067190  3.382050
29   1  0.8232  0.327024  2.879100  9.495360
30   1  0.8327 18.349100  3.165630 15.488000
31   1  0.7935 18.237800  9.310790  3.515620
32   1  0.7208  0.355846  9.282750  9.336480
33   1  0.7772  0.039691  8.891130 15.604700
34   1  0.7499  0.065121 15.381200  3.505280
35   1  0.8237 18.465500 15.419700  9.361660
36   1  0.8450  0.664943 15.330200 15.377600
37   1  0.7127  6.131160  3.458480  3.602820
38   1  0.8609  6.066690  3.264440  9.744340
39   1  0.8027  6.087790  3.080960 15.390500
40   1  0.8038  6.128130  9.283570  3.483510
41   1  0.8118  6.186350  9.127390  9.585130
42   1  0.8059  6.219130  9.230140 15.336700
43   1  0.7735  6.262790 15.547000  3.843880
44   1  0.7615  6.454140 14.649200  9.370290
45   1  0.7923  6.200820 15.322500 15.397100
46   1  0.7490 12.332100  3.157040  3.400410
47   1  0.7037 12.526100  3.534330  9.262440
48   1  0.8129 12.370900  3.150020 15.633800
49   1  0.7818 12.166100  9.171230  3.206500
50   1  0.8325 12.270900  9.446120  9.412960
51   1  0.7903 12.530300  9.561370 15.232500
52   1  0.7859 12.350700 15.552800  3.327100
53   1  0.8333 12.344500 14.968100  9.447710
54   1  0.7819 12.275000 15.214500 15.606500
55   1  0.7157  3.311840  0.491802  3.249870
56   1  0.8667  3.195360 18.150700  9.549560
57   1  0.7865  3.126410 17.895400 15.147400
58   1  0.7953  3.191230  6.349640  3.398830
59   1  0.7731  3.131110  6.375010  9.490900
60   1  0.8806  3.243940  6.192420 15.298700
61   1  0.7599  3.458390 12.308600  3.014180
62   1  0.7675  3.298950 12.029200  9.240880
63   1  0.8444  3.060640 12.413800 15.336600
64   1  0.7944  9.049110 18.530300  3.469370
65   1  0.7680  9.822990 -0.130976  9.081210
66   1  0.8359  9.388730  0.064447 15.397000
67   1  0.8184  9.103430  6.106530  3.076060
68   1  0.7139  9.552700  6.180210  9.063050
69   1  0.7531  9.104270  5.820160 15.188800
70   1  0.7649  8.654860 12.523400  3.391120
71   1  0.8332  9.114530 12.205900  9.261320
72   1  0.7521  9.148050 12.489600 15.187100
73   1  0.8011 15.244000  0.246000  3.279120
74   1  0.8254 15.691300 -0.107147  9.693420
75   1  0.8402 15.310900 18.291000 15.585700
76   1  0.8039 15.447000  6.272770  3.252650
77   1  0.7524 15.580500  6.238470  9.357320
78   1  0.7802 15.348200  5.925180 15.774800
79   1  0.7710 15.709000 12.544700  3.284140
80   1  0.7425 14.983300 12.441500  9.333830
81   1  0.8030 15.532900 12.269800 15.358600
82   1  0.7066  3.334700  2.879550  0.376256
83   1  0.8227  3.210440  3.222570  6.380820
84   1  0.7763  3.349520  2.991920 12.181100
85   1  0.7479  3.259810  9.538160  0.314182
86   1  0.8596  3.279600  9.253450  6.546730
87   1  0.7264  3.023700  9.377850 12.255000
88   1  0.8564  3.253920 15.433400 -0.086344
89   1  0.8225  3.325930 15.110900  6.385250
90   1  0.7815  3.420960 15.564100 12.458700
91   1  0.7445  8.895350  3.017540  0.359639
92   1  0.7948  9.367510  3.096670  6.702390
93   1  0.8035  9.837280  2.768280 12.444000
94   1  0.7509  9.200190  9.531780 -0.118945
95   1  0.7736  9.302860  9.096770  6.190500
96   1  0.8453  9.517180  9.129150 12.456300
97   1  0.7878  9.369080 15.365200  0.454687
98   1  0.7691  9.690950 15.355700  6.388820
99   1  0.8041  9.496380 15.454600 12.173000
100  1  0.7893 15.097900  3.333170  0.235370
101  1  0.7727 15.515000  2.771380  6.867100
102  1  0.8571 15.478400  2.758110 12.582900
103  1  0.8128 15.134000  9.000880  0.548534
104  1  0.8355 15.120100  9.362750  6.188070
105  1  0.7407 15.528600  8.609860 12.930600
106  1  0.7763 15.487900 15.419600 18.582600
107  1  0.7506 15.216200 14.884000  6.448330
108  1  0.8326 15.602800 15.118100 12.789800
109  2 -0.8538  3.389470  0.092229 18.172300
110  2 -0.7102  3.427650 18.318300  6.576490
111  2 -0.8680  3.755570  0.044187 12.516900
112  2 -0.7257  2.975300  6.417350 18.385700
113  2 -0.7308  3.075630  6.474210  6.387600
114  2 -0.7991  3.281710  6.072080 12.472200
115  2 -0.8564  3.144410 12.559800 -0.010210
116  2 -0.7983  3.402600 12.187800  6.203290
117  2 -0.7655  3.574900 12.492600 12.545900
118  2 -0.7551  9.133400 18.183800 18.183100
119  2 -0.8153  9.108520  0.333934  6.413250
120  2 -0.8288  9.562450  0.086798 12.038300
121  2 -0.7779  9.133470  6.225240  0.343247
122  2 -0.8435  9.326880  5.882490  6.432130
123  2 -0.7670  9.385400  6.064910 12.415000
124  2 -0.8059  8.827750 12.403000 18.271700
125  2 -0.8341  9.218240 12.217300  6.081700
126  2 -0.7567  9.319620 12.382300 12.230000
127  2 -0.7675 15.263900 18.437600 18.468600
128  2 -0.7832 15.340200 18.211300  6.394170
129  2 -0.7754 15.493100 -0.056953 12.728100
130  2 -0.9087 15.493500  6.129110  0.345966
131  2 -0.7250 15.222600  6.485600  6.309360
132  2 -0.7736 15.094400  5.891510 12.851400
133  2 -0.6863 15.237500 12.086000  0.132475
134  2 -0.8313 15.456700 12.144100  6.212480
135  2 -0.7695 15.122900 12.142700 12.621800
136  2 -0.8422  2.869650  3.333040  3.627550
137  2 -0.7918  3.291450  2.888710  9.358320
138  2 -0.7330  3.085220  3.013730 15.502400
139  2 -0.7683  3.044160  9.123380  3.697490
140  2 -0.9081  3.258870  9.401570  9.257170
141  2 -0.7192  3.040300  9.017170 15.338900
142  2 -0.7372  3.045730 15.714500  3.680900
143  2 -0.7787  3.193830 15.399800  9.542300
144  2 -0.9135  3.229330 15.165700 15.480500
145  2 -0.7979  8.921880  3.168450  3.512690
146  2 -0.7753  9.321040  3.111280  9.493140
147  2 -0.7823  9.400660  2.951500 15.274100
148  2 -0.7398  8.966470  9.079730  3.375770
149  2 -0.7585  9.327230  9.317800  9.594670
150  2 -0.7573  9.435130  9.358480 15.221100
151  2 -0.8081  9.065950 15.510000  3.582330
152  2 -0.8486  9.512300 15.167700  9.253360
153  2 -0.7833  9.317920 15.444800 15.459800
154  2 -0.7575 15.318400  3.331220  3.379150
155  2 -0.8078 15.585500  2.665820  9.678730
156  2 -0.8114 15.349900  3.057030 15.467600
157  2 -0.8080 15.137100  9.423370  3.158030
158  2 -0.7137 15.210600  9.184490  9.111290
159  2 -0.8214 15.370800  9.069500 15.693000
160  2 -0.8457 15.424400 15.460800  3.206860
161  2 -0.7647 15.226100 15.156400  9.762500
162  2 -0.7718 15.477500 15.215700 15.618000
163  2 -0.8115 18.222100  0.340694  3.483010
164  2 -0.9106  0.525632  0.133517  9.670180
165  2 -0.7786 18.286200 18.157000 15.105200
166  2 -0.7974 -0.036568  5.916630  3.483730
167  2 -0.8256  0.338288  5.938560  9.258490
168  2 -0.7697  0.360083  5.890310 15.345900
169  2 -0.8334  0.344723 12.335000  3.297480
170  2 -0.7380  0.302154 12.511600  9.679320
171  2 -0.8080 18.332100 12.259200 15.420900
172  2 -0.7731  6.428870 18.389000  4.005980
173  2 -0.6827  6.084920 18.419000  9.481120
174  2 -0.7666  6.318500 18.520400 15.221100
175  2 -0.7682  6.066110  6.324240  3.521310
176  2 -0.8590  5.999560  6.318410  9.627920
177  2 -0.7794  5.882240  6.147280 15.489900
178  2 -0.8609  6.045740 12.315800  3.098340
179  2 -0.8389  6.432190 11.838200  9.474290
180  2 -0.8148  5.983870 12.268500 15.403900
181  2 -0.8457 12.365400 18.372400  3.342620
182  2 -0.7236 12.807300  0.022011  9.367800
183  2 -0.7883 12.272500 -0.118007 15.734600
184  2 -0.7710 12.017200  6.500160  3.424410
185  2 -0.7721 12.641400  6.456750  9.359710
186  2 -0.7825 12.142900  5.934610 15.430600
187  2 -0.7328 12.221700 12.466300  3.580600
188  2 -0.7813 11.938300 12.206800  9.722400
189  2 -0.8416 12.119400 12.467700 15.406500
190  2 -0.7704 -0.143909  2.776700  0.378334
191  2 -0.8128  0.214729  3.256220  6.601260
192  2 -0.8074 18.294200  3.056780 12.412600
193  2 -0.7735 18.316800  9.279360  0.441626
194  2 -0.7587 18.289800  9.482250  6.234800
195  2 -0.8393 18.392800  8.615270 12.461200
196  2 -0.7884  0.531625 15.466900 18.133700
197  2 -0.8187 18.353100 15.098900  6.654630
198  2 -0.8209  0.214046 15.108000 12.556900
199  2 -0.9001  6.093310  3.209010  0.254314
200  2 -0.7312  6.038460  3.131310  7.027280
201  2 -0.7884  6.260430  3.239730 12.425500
202  2 -0.7765  6.025200  9.245160 18.287500
203  2 -0.7712  6.365200  9.093560  6.317430
204  2 -0.7632  6.520770  9.356730 12.675900
205  2 -0.7188  6.172250 15.567500 -0.004654
206  2 -0.8051  6.078290 15.197900  6.629450
207  2 -0.7713  6.585040 15.535800 12.339700
208  2 -0.8038 12.061600  3.119250  0.215427
209  2 -0.7810 12.533900  3.592490  6.455810
210  2 -0.8227 12.521300  2.922090 12.719200
211  2 -0.7888 12.168500  9.454680 -0.004691
212  2 -0.8564 12.202200  9.296530  6.266750
213  2 -0.7230 12.359200  9.348480 12.356800
214  2 -0.7905 12.283800 15.631800 18.812200
215  2 -0.8352 12.422000 15.275600  6.588110
216  2 -0.8024 12.411800 15.346600 12.315000

