Generated by pymatgen.io.lammps.data.LammpsData

504  atoms

  2  atom types

0.000000 17.774667  xlo xhi
0.000000 21.986255  ylo yhi
0.000000 41.650458  zlo zhi

Masses

1  208.9804
2   78.9600

Atoms

1    1  0.6747 10.492500  7.546950 15.846500
2    1  0.6678 -0.319779  0.174551  7.459790
3    1  0.7165 11.641800  1.250980 14.728600
4    1  0.5875 16.983000 10.297700 16.964300
5    1  0.0831  3.287820  8.850860  9.823220
6    1  0.0094  3.576040 18.966200 15.164500
7    1  0.4860  5.854800  6.340270 11.291100
8    1  0.2006  0.800123  7.880970 14.858200
9    1  0.3714  9.092210 11.279900  7.135780
10   1  0.0190  2.267980 15.415900 13.993700
11   1  0.4260 16.339100 11.318300  6.794900
12   1  0.7098 12.695800 18.582300 19.165500
13   1  0.6261 15.691900  3.288190 10.409200
14   1 -0.0146  3.859060  6.712670 15.469800
15   1  0.7312 10.503900 13.853900 10.753900
16   1  0.3283  6.652270  6.900140 16.556000
17   1  0.8332 12.962200 20.141300 12.844200
18   1  0.0851  1.663440 20.812700 16.631300
19   1  0.4690  8.166440 18.104000 13.007400
20   1  0.6055 12.332100  7.030080 19.346800
21   1  0.5488 10.719000  2.280660 24.507100
22   1  0.6851 15.816900 19.266400 15.462000
23   1  0.6866 10.146200  4.010480 10.482900
24   1  0.4734  9.134010  3.504990 16.381100
25   1  0.4693  3.018350 15.029800 41.284000
26   1  0.7391  4.467870 20.017700  3.750830
27   1  0.5627  0.295042  5.542760 39.547000
28   1  0.6316  6.256340  1.586270  1.329340
29   1  0.0088  3.750890 10.551100  3.783550
30   1  0.9211  6.172520 21.460500  9.024540
31   1  0.2846  2.853690 15.548600  3.063880
32   1  0.3862  3.454980 10.010400  0.487174
33   1  0.3760  7.452340  3.881940  3.875920
34   1 -0.0995  5.069990 10.419700  8.204330
35   1  0.2296 16.264300  8.770800 36.768200
36   1  0.2394  0.737987 13.742200  5.585150
37   1  0.6049  4.666820 19.584900 33.852100
38   1  0.2826  6.709620 12.314000 40.566600
39   1  0.7034 11.966600 16.738000  7.202390
40   1  0.5624 11.837500 10.164900  9.268560
41   1  0.5262 14.705400 12.719300 41.285600
42   1  0.4231  1.024830  8.710830 38.637900
43   1  0.6339  7.369160 21.837400 39.596900
44   1  0.6568  3.248190  1.138280 41.495000
45   1  0.7062 16.722300  2.995300  2.985190
46   1  0.6810 17.398000 17.374600  3.263020
47   1  0.7270 13.242500  1.506680  6.173610
48   1  0.6029 14.089400  0.933902  1.321710
49   1  0.7004 16.829600 10.329400  1.165490
50   1  0.1637  4.357090 10.617200 15.784700
51   1  0.5229  1.309110 17.169700  7.744870
52   1  0.0553  3.751580  7.956900  5.120830
53   1  0.7082 12.429600  9.829720 12.376000
54   1  0.5417  2.648440  3.395970  4.592100
55   1  0.3376  3.626080  5.219940  7.333450
56   1  0.5538 14.048200  7.567730 15.295100
57   1  0.6865 10.160000  7.506620  4.322620
58   1  0.2960  5.754110 14.714500  9.195930
59   1  0.0331  5.035150 13.499900  2.071990
60   1  0.7255  9.040460 19.440400  1.827130
61   1  0.5783  7.947870  2.887210  7.548570
62   1  0.7216 16.041500 18.624300  6.200220
63   1  0.7333 15.334200  5.526050  5.230420
64   1  0.6403  1.313190  6.322870  1.497110
65   1  0.1668  6.085510 11.450900  5.717950
66   1  0.2425  2.180330 12.598300  2.232150
67   1  0.3398  0.694453 16.033100 11.425800
68   1  0.7797 16.652500 21.279200  3.273990
69   1  0.1515  3.614440 13.568800  6.439010
70   1  0.6255 15.248600  8.540880  2.993920
71   1  0.8134 10.424400  2.603100  2.525620
72   1  0.2214  3.659200 15.429400 11.019800
73   1  0.5487  6.717340  7.789730 40.012500
74   1  0.0731  4.533540 17.203300 12.981000
75   1  0.3822  8.667100  8.102610  8.599910
76   1  0.6840  7.786450 19.609900  5.326100
77   1  0.6235 13.333800  6.527660 10.123700
78   1 -0.0171  4.761170  7.563090  7.793860
79   1  0.0035  4.797310 16.199100 15.826400
80   1  0.1451  6.807810 12.395500  9.224500
81   1  0.1262  4.669560  8.014560  2.280590
82   1  0.3500  5.879810 15.510600  4.442940
83   1  0.4063  8.933160 10.669400 41.133000
84   1  0.6744 13.192200  9.498380  0.392921
85   1  0.6488  0.163854  4.273970  6.941010
86   1  0.5930  4.802520  5.720530 -0.101212
87   1  0.0912  7.011560  8.611230  4.810960
88   1  0.3573  0.632274  8.758430  8.491820
89   1  0.5920 15.693900 20.847800 10.282600
90   1  0.1435  6.284970  9.866750 10.789900
91   1  0.1945  5.539670 13.573500 17.311100
92   1  0.4228 16.007800  1.041680 12.459900
93   1  0.0173  2.199600 10.165600  6.754320
94   1  0.7407 13.341900  9.512000  5.630110
95   1  0.6809 12.470000 13.924400  5.787900
96   1  0.3426  3.347770 18.262500 10.560400
97   1  0.0993  7.199100 15.958000 20.563100
98   1  0.2070  4.851860 17.784500 20.391500
99   1  0.5756 -0.096808  3.421000 22.990600
100  1  0.7673  4.972140 10.321700 21.715300
101  1  0.5897  3.507480 16.277800 34.364100
102  1  0.7007  5.396780 21.516300 21.169100
103  1  0.4828  2.264240 18.069600 22.202500
104  1  0.0883  4.506790  8.415500 13.008700
105  1  0.5744  4.338720 21.868400 29.181300
106  1  0.1325 13.517700  6.643130 29.881100
107  1  0.1926 14.603500  9.318950 29.082200
108  1  0.7864  7.979360  9.788880 27.019700
109  1  0.6156  8.031970 17.807000 23.658300
110  1  0.5368  8.279460  5.298410 25.681700
111  1  0.3138  9.893740  4.405160 28.688900
112  1  0.7449 14.306100 14.728600 26.215800
113  1  0.7248  5.740740 13.062400 25.615100
114  1  0.5647 16.344200 12.650000 28.895600
115  1  0.7228 13.867800 16.257700 22.575100
116  1  0.5662 10.701800 19.221800 28.356600
117  1  0.6612  2.783250  4.645970 28.960700
118  1  0.2690 17.511100 20.929500 20.168100
119  1  0.2156  9.395380 17.439800 19.493500
120  1  0.6940 12.522400 10.475800 25.393400
121  1  0.4178  9.097780 14.140200  7.948250
122  1  0.2362  2.847460  1.467790 15.638200
123  1  0.2969 17.388900  5.392080 16.318900
124  1  0.2753  4.853010  1.880060 17.380100
125  1  0.7084  9.085230  0.212600 17.725100
126  1  0.2907  5.659010 20.575200 18.245500
127  1  0.3697 15.962500  1.312650 20.559000
128  1  0.2698 17.376300  0.099872 15.019100
129  1  0.5453 16.369600  8.897690 11.649600
130  1  0.6895 12.448600 13.714700 20.989600
131  1  0.5674 13.061800 21.831000 20.662300
132  1  0.7219  7.731550  0.221067 13.523000
133  1  0.9408  3.175360  1.506650 10.002500
134  1  0.6304 12.939900 10.757900 17.164700
135  1  0.1786  1.020650  3.909490 13.997000
136  1  0.8335 12.760200 16.095400 12.069400
137  1  0.0531  1.877200 19.046500 19.059800
138  1  0.6071 16.922400 14.574100  8.096620
139  1  0.7966  3.979800 16.182900 23.804200
140  1  0.6494 11.917200 15.805400 17.266600
141  1  0.7483 14.977900 14.486400 18.771000
142  1  0.7335  1.154130  9.979350 21.446500
143  1  0.0461  2.945920  4.241280 16.749000
144  1  0.2767  1.823790  7.008140 17.916900
145  1  0.8840 11.447200 13.363000 14.699700
146  1  0.1430  3.828960 11.804200 10.442600
147  1  0.4746  6.230490  3.805400 20.637700
148  1  0.5083  6.432840  9.989710 18.253000
149  1  0.0571  6.768180 17.604100 17.870000
150  1  0.7001 13.118300  4.229580 21.594400
151  1  0.3428  0.605093 21.517800 12.006500
152  1  0.5081 10.236500  4.393360 13.834900
153  1  0.6230 10.370500 13.356200 27.244300
154  1  0.7780  9.183080  9.909200 22.869700
155  1  0.8361 13.419200 21.327000 17.307000
156  1  0.7677  7.759610 21.966400 23.853600
157  1  0.4723  9.552140 18.455000 16.233500
158  1  0.8323  0.164270 13.885200 22.886500
159  1  0.4450 16.701200 15.078000 14.431600
160  1  0.7328  9.725370 19.143800 10.073300
161  1  0.2588  2.676480  0.271679 18.970800
162  1  0.6275  1.863740 21.682100 25.338200
163  1  0.5095 10.205800 18.829400 21.849400
164  1  0.6984 15.592300  8.050170 22.841300
165  1  0.4498  6.391410 13.673800 22.188600
166  1  0.3760  0.703133 13.066500 14.776600
167  1  0.3121  6.486650 10.142300 13.887900
168  1  0.2256  6.596640 19.039100 15.487300
169  1  0.6301  2.348740 16.449600 27.221000
170  1  0.6170  1.187950  6.721190 21.355400
171  1  0.6142  5.792520  6.204950 22.391700
172  1  0.6321 12.900500 10.051700 20.757000
173  1  0.7818  3.409670  2.435960 23.301600
174  1  0.0464  1.467190 18.033400 13.192200
175  1  0.2918 17.183300  0.436489 23.002500
176  1  0.3140 11.237600  7.953510 29.376300
177  1  0.7833  4.076330  7.626850 27.143400
178  1  0.6496  5.371260  2.676810 27.348200
179  1  0.5301 16.802300 18.004000 19.383200
180  1  0.4974  8.005450 11.273100 16.095000
181  1  0.6403 12.019800 20.798300 24.178900
182  1  0.2557  5.860290  3.922280 15.304400
183  1  0.3202 16.677400  6.043010 13.161200
184  1  0.4246  9.228070 12.891000 19.158000
185  1  0.1014  2.841540 16.455000 18.168800
186  1  0.2555  4.254580  5.747620 18.979700
187  1  0.6830 10.413200  1.917600 21.231200
188  1  0.6606 15.376400  2.540100 15.945700
189  1  0.1842  2.929930 13.609900 16.331600
190  1  0.6597  0.547729 13.312900 19.169000
191  1  0.1627  0.791872 17.909500 16.269200
192  1  0.6254 15.594200 12.469300 12.411100
193  1  0.0487 15.795100  8.860250 31.740000
194  1  0.5754 11.191900 13.032800  0.956991
195  1  0.7019 14.411100  4.718650 36.356800
196  1  0.6781  2.500760 19.873800 -0.000897
197  1  0.2728  1.004990 11.745300  8.612280
198  1  0.6203 17.484200 16.135800 41.420900
199  1  0.5272 15.845800  0.938435 39.886700
200  1  0.6299 13.527100  3.567190 39.530400
201  1  0.6716 11.258300  4.629100  6.843260
202  1  0.0287  6.316600 10.820300  1.246940
203  1  0.7687 11.208600 21.458200 40.794300
204  1  0.7709 11.414300 20.866700  4.773860
205  1  0.7031  9.809550  6.621890 41.444400
206  1  0.8302 13.435100  5.604690  1.616110
207  1  0.1382  6.620960  5.514290  6.239400
208  1  0.6790 13.264200 14.335200 37.068600
209  1  0.5218 12.659200 16.658200 41.398400
210  1  0.5317 13.472500 17.417400  2.800020
211  1  0.6025  8.854590  3.506070 40.355000
212  1  0.5434  6.816260  3.400620 30.504800
213  1  0.5543 10.458500 20.344000 32.875700
214  1  0.0248 -0.012014  8.360510 34.145300
215  1  0.8227 14.251000 19.156300 37.332600
216  1  0.1286  0.968609  7.352190 31.036400
217  1  0.7084 17.202900 19.040600 32.025600
218  1  0.5771  0.234711 18.592900 26.835200
219  1  0.6748 17.439100  3.131430 37.462600
220  1  0.1965  4.223280  6.690550 31.387600
221  1  0.3519  3.291160  8.067700 36.778400
222  1  0.7000  3.771100 16.421900 31.185300
223  1  0.6895  1.802960 22.180100 38.301700
224  1  0.7837 16.971100  5.515300 27.057000
225  1  0.8163 11.832800  7.756620 37.228300
226  1  0.6871  8.063700 17.430800 31.540600
227  1  0.6296  5.649790 16.439800 27.345300
228  1  0.6357  7.121350  2.405840 36.322800
229  1  0.7133  6.929050 20.134900 27.466200
230  1  0.1987  5.243880 10.033900 32.397100
231  1  0.5668  9.497440  4.029760 36.516200
232  1  0.5377 12.118000 12.610500 33.399000
233  1  0.5819  9.329730 14.291200 23.758700
234  1  0.3425  7.676350 10.010400 33.748300
235  1  0.6192 11.898500 17.834600 24.909700
236  1  0.3945 14.824800  7.176800 34.553300
237  1  0.6672  9.356970  5.719260 22.504000
238  1  0.5906  2.339290 11.316100 28.372800
239  1  0.6323 14.460500 18.001500 28.662800
240  1  0.6364 12.794500  2.884240 27.433200
241  1  0.6699 12.434500 16.293700 34.414200
242  1  0.6367 14.112800  2.102050 33.009800
243  1  0.4317  6.034750  9.782990 36.867400
244  1  0.3595 16.866200 11.189000 38.348500
245  1  0.5314  8.478620 11.757300 38.145700
246  1  0.5204  4.382440 20.507000 39.317100
247  1  0.4201  6.522760 12.918400 33.985700
248  1  0.7840  3.659570  1.528620 34.187300
249  1  0.0321  3.193160 10.795100 34.954600
250  1  0.5899 10.163800  8.605440 33.965900
251  1  0.4531  7.812290  6.435640 30.063900
252  1  0.3089 14.561300 11.137600 34.321000
253  1  0.6310 11.773900  2.004060 35.649600
254  1  0.0776  4.818360  8.172690 34.272800
255  1  0.4329 14.177300 10.824700 37.694000
256  1  0.0206  0.711560 10.272100 30.922600
257  1  0.3823 15.598300  5.699210 30.820500
258  1  0.3522 11.316100  6.375560 32.411300
259  1  0.5938  0.348002 14.528500 35.448300
260  1  0.5878 10.506700  0.868015 29.191600
261  1  0.2508  3.146240 11.968900 31.991300
262  1  0.5641 15.635600  1.583070 25.051200
263  1  0.2416  2.119860  6.107690 33.588200
264  1  0.5764  6.109870  4.975790 34.788800
265  1  0.3840  0.173392 12.834100 32.353000
266  1  0.0069 -0.268126 11.180400 35.040100
267  1  0.6421 -0.286744  9.732390 26.358500
268  1  0.7376  9.254100 16.434100 38.833700
269  1  0.4130  9.247750 14.658700  3.932410
270  1  0.6720  5.655610 17.116600 38.577700
271  1  0.7244  0.046805 21.338800 34.414500
272  1  0.8169  0.573997  1.951750 31.151800
273  1  0.5983  8.448150 15.704800 35.876900
274  1  0.4068 12.548200 10.986200 30.534700
275  1  0.7523 14.507800 14.918900 31.588700
276  1  0.5048  3.455740 19.078800 28.431500
277  1  0.6054  7.102930 21.545000 32.709500
278  1  0.5167 14.276200 19.336000 41.259200
279  1  0.5667  9.746790  3.125000 32.229900
280  1  0.7087  3.835470  5.147430 37.871700
281  1  0.7704  0.458109 17.799600 37.799300
282  1  0.5492 13.594500 20.249700 32.976000
283  1  0.7308  9.180750 20.836000 36.917300
284  1  0.5750 16.955600 18.210900 23.381800
285  1 -0.1115  2.810440  9.056980 32.371700
286  1  0.4106  5.739460  2.075430  5.199830
287  1  0.7126 14.782900 20.795700 27.036800
288  1  0.5619  8.035900 14.283900 29.536900
289  2 -0.7721  0.815043  5.641940 36.853600
290  2 -0.7080  3.129230  2.493510  7.272380
291  2 -0.5496  1.479060  3.766900  1.167340
292  2 -0.6690 14.441400 17.867400 31.484600
293  2 -0.5165 12.122700 17.001400 38.336200
294  2 -0.7157  0.384007  5.687290  4.386870
295  2 -0.7536  9.783670  0.794985 38.623800
296  2 -0.5080  6.058610  1.963480  9.421910
297  2 -0.7257 14.647500 19.677700  4.191460
298  2 -0.5656 14.552400 15.903200  5.321740
299  2 -0.6959  3.360460 17.594900 40.177200
300  2 -0.6171 10.180500  1.741890  5.058170
301  2 -0.5744  2.589710 20.418800 35.936200
302  2 -0.7021  1.235910 11.337000 -0.166849
303  2 -0.6811 11.960300  2.919800 41.849600
304  2 -0.4486 13.126500  6.573310 40.741000
305  2 -0.5990  2.307610 15.699800 37.053600
306  2 -0.5705 12.484000 21.300100 35.801900
307  2 -0.5671 10.287600 18.503000 41.195700
308  2 -0.5523  1.458190  5.387690  9.779700
309  2 -0.5575 12.151200 10.524300 39.548000
310  2 -0.6247  9.005160  8.638130 39.009400
311  2 -0.6016 10.736100  4.895310  3.714660
312  2 -0.6858  1.765120  3.078620 38.878600
313  2 -0.6452  0.367868 19.656400  4.785710
314  2 -0.3582 11.987500 19.436200  8.462680
315  2 -0.6195 16.161000 14.143300 37.728400
316  2 -0.7785 16.736700  0.900195  1.189360
317  2 -0.7291  3.629530 10.552700 37.900600
318  2 -0.7246 12.103000 20.504900  2.336790
319  2 -0.4912 10.575700  2.214620  8.691060
320  2 -0.6664  8.470050 21.234800  3.574780
321  2 -0.6700  8.656230  0.650528  0.439588
322  2 -0.6129 10.610000 10.573000  1.865030
323  2 -0.5922 15.408600 17.224400 39.539200
324  2 -0.6528 16.313200 17.208400  8.523260
325  2 -0.7718 11.042800 17.738700  4.846870
326  2 -0.6575  5.681720 20.322100  1.231340
327  2 -0.5665 11.297400  7.598760  1.761580
328  2 -0.5582 16.290700  7.625850  7.235410
329  2 -0.7689 14.274300 14.135600 34.531700
330  2 -0.5925  3.228440 22.089000 12.764900
331  2 -0.6650 15.205300  3.970670  7.690980
332  2 -0.4475 13.051600  2.012400 10.825900
333  2 -0.5143 10.768400 10.480100  4.734030
334  2 -0.9753  7.381300 13.635900  5.849480
335  2 -0.5330 14.371700 14.277700  2.259800
336  2 -0.6476 14.783300  6.992840 38.252500
337  2 -0.5641  7.133670 18.349600  8.342090
338  2 -0.5764 10.277300  0.750033 12.447700
339  2 -0.6510  8.351410  7.137350 14.066500
340  2 -0.5970 14.369400 11.944000  4.773200
341  2 -0.6282  5.825030 21.336600  6.160980
342  2 -0.4236  8.843360 21.378000  8.243790
343  2 -0.6115  3.211090 20.668500  9.507550
344  2 -0.7859 14.764900 10.298700 14.710900
345  2 -0.6045 14.880200  0.121596  8.249780
346  2 -0.8053 15.706700 19.470100 12.761000
347  2 -0.8018  0.037124  8.992420  2.980210
348  2 -0.4973 14.455400 14.426100  9.621600
349  2 -0.5759 11.203600 18.120300 13.551700
350  2 -0.6692  0.155288 20.109500 40.044700
351  2 -0.8559  8.393000  5.517380  8.356800
352  2 -0.4064 13.609500 18.315000 10.700800
353  2 -0.6940 17.317500 14.915700  2.527810
354  2 -0.4783 14.641200 11.751000 21.349700
355  2 -0.7469  0.402893  1.606300  9.830600
356  2 -0.5733 16.082700  4.606060 20.664300
357  2 -0.4493  9.556520 14.840900 12.781800
358  2 -0.5823 13.632200 15.677000 14.580500
359  2 -0.7306 16.092700  1.095170  5.265360
360  2 -0.4459  3.573940  3.835180 11.642100
361  2 -0.8062 11.713400 13.009600 17.302400
362  2 -0.8574  6.175620  0.156889 15.860700
363  2 -0.7679 13.319600  7.243630 12.690700
364  2 -0.9420  1.756120 14.541900  8.888180
365  2 -0.6894 10.664100  9.008930 18.630600
366  2 -0.6183 10.096300  7.955870 27.177400
367  2 -0.5528  7.188600 12.939100 13.900800
368  2 -0.7544  0.261727 10.034100 13.201100
369  2 -0.6185 12.930300  5.208090 16.069700
370  2 -0.4790  9.113390 11.425200 11.880400
371  2 -0.6583 14.688800  9.025120  9.130610
372  2 -0.7770 10.543500 16.121800  9.574890
373  2 -0.6357  8.705520 14.929600 41.232600
374  2 -0.7297 13.680800  6.939000  4.119410
375  2 -0.7048 10.998100  4.930660 20.386100
376  2 -0.6987 11.607700  7.091180  7.260350
377  2 -0.7092 12.492500 13.052200 12.277000
378  2 -0.7946 11.859900 12.030400  7.662760
379  2 -0.4527  9.683490  8.086880 11.663900
380  2 -0.6650  1.593540 10.821200 18.448300
381  2 -0.4722 12.468300  8.312300 23.238800
382  2 -0.4780 16.700700 10.919700 23.503200
383  2 -0.6791  0.375878 12.958800 11.596000
384  2 -0.6603 -0.233534  3.285260 18.021700
385  2 -0.6462 11.798100  1.656670 17.340200
386  2 -0.7373  2.625590  2.959970 20.820100
387  2 -0.8675 13.024400  2.012100 22.830100
388  2 -0.7744 15.069100  3.732320 13.648500
389  2 -0.8825 12.880800 16.090900 19.908500
390  2 -0.6391  6.861590 20.229400 11.566400
391  2 -0.8738 -0.017808 15.287100 17.003700
392  2 -0.5786  3.945830  7.851100 22.896400
393  2 -0.8056  4.227990  8.840250 18.840500
394  2 -0.7956  7.604870 19.932500 20.162900
395  2 -0.7294  4.302180 17.893400 25.871900
396  2 -0.5710 14.963800 16.934700 17.847100
397  2 -0.6258  8.910170 14.755600 16.162300
398  2 -0.5787  7.553790  4.046580 12.695000
399  2 -0.8843  6.689890 15.423000 24.308600
400  2 -0.6484 15.537500 11.540200 18.844000
401  2 -0.6153  8.264590  5.241460 18.245100
402  2 -0.5157 14.130500 13.461800 23.986300
403  2 -0.7512 14.329000  0.277887 14.814700
404  2 -0.7590 11.239600 20.560600 18.870600
405  2 -0.6323  3.405260 17.741700  5.308230
406  2 -0.5870 10.979600 10.167800 14.985100
407  2 -0.6703  8.003910  1.911800 19.964000
408  2 -0.5554  4.881060 18.807200 23.197500
409  2 -0.6984  2.916690 14.518500 21.027900
410  2 -0.4520  2.585160 10.013700 26.217200
411  2 -0.4562  0.062427 13.004700 26.001400
412  2 -0.4802  8.091040  7.259410 20.606000
413  2 -0.3793  2.207480 11.610200 23.242600
414  2 -0.8839 16.894200 20.388000 25.091600
415  2 -0.5149 11.091500  5.628770 25.096000
416  2 -0.6015  7.990060  7.593120 24.217300
417  2 -0.6353  5.869790  1.521370 22.737000
418  2 -0.6671  8.205010 17.922000 26.352400
419  2 -0.8335 11.053100 16.160700 23.113200
420  2 -0.4536  1.915880  2.249900 28.145900
421  2 -0.5559 13.278700 19.321700 15.976800
422  2 -0.6165 10.642300 16.925900 31.384800
423  2 -0.7068  7.388850  2.037600 25.564800
424  2 -0.8771 16.151600 20.961800 17.578100
425  2 -0.8205 14.688400 17.351300 25.840500
426  2 -0.5614  1.243970 17.450700 30.069200
427  2 -0.6940 10.292700 21.058400 25.917400
428  2 -0.7188  6.200180  6.913210 36.630300
429  2 -0.7260 10.003400 21.088700 15.334200
430  2 -0.5474 14.921200  7.910280 26.167800
431  2 -0.7293 10.819300 11.770900 21.926200
432  2 -0.8267 14.378800 19.421600 21.681400
433  2 -0.4158 14.266300  5.165940 24.348500
434  2 -0.6219  2.148650 21.600800 31.880800
435  2 -0.5468  3.553340 14.244700 25.617300
436  2 -0.4881  5.736750 12.257500 28.141700
437  2 -0.7220  9.260650 20.868500 30.386600
438  2 -0.6724 14.429500  2.042250 36.143300
439  2 -0.7030 17.012600  8.286490 19.906700
440  2 -0.4441  4.614900 21.700200 25.195900
441  2 -0.8249  5.260720  5.678650 28.611900
442  2 -0.4322  5.369910 10.340300 24.975800
443  2 -0.8437  5.622420 18.301100 29.852800
444  2 -0.8596  6.767760 11.359200 20.592500
445  2 -0.7044  7.305790  2.640160 33.069500
446  2 -0.5845  6.578850  8.845500 29.622000
447  2 -0.7662  9.457400 11.397200 25.372000
448  2 -0.7782  7.833810  5.287290  1.306470
449  2 -0.5888  1.617950  3.338910 24.953200
450  2 -0.7855  4.587970  3.319000  2.464010
451  2 -0.7863  2.677250 21.296300 21.810000
452  2 -0.6882 11.224400 15.626100 26.222100
453  2 -0.7653  0.637026  7.545700 27.696300
454  2 -0.5312  0.147521  6.088860 23.887900
455  2 -0.4303 15.745600  1.861940 27.672400
456  2 -0.6646 -0.216353  4.523720 29.412300
457  2 -0.6847 16.713000 15.868100 21.284700
458  2 -0.5949 11.046100 18.181800 35.410900
459  2 -0.6865  7.025370  0.340750 28.914100
460  2 -0.5225  2.981020 14.282200 29.589800
461  2 -0.5141  0.990782 17.870200 34.791400
462  2 -0.5293  0.776433 15.238900 32.397600
463  2 -0.9274 15.121200 12.060800 31.293200
464  2 -0.7036  1.253220 16.287300 23.965100
465  2 -0.6292 12.175900 13.892800 40.006300
466  2 -0.6247  6.405290  4.759740 39.207000
467  2 -0.7409 12.893300 12.778700 28.355000
468  2 -0.4730 15.438700 17.341800 35.925700
469  2 -0.7920 10.457900 21.316700 22.247400
470  2 -0.5970  4.471910  2.788920 36.389800
471  2 -0.8709 12.412900  9.284800 34.800700
472  2 -0.5821  9.182820 10.812700 30.703600
473  2 -0.6097 13.957900 20.689700 29.557400
474  2 -0.5926  9.419530 14.761100 33.384900
475  2 -0.7734 13.015700  4.584840 34.105100
476  2 -0.5767  0.976103 20.983400 27.973900
477  2 -0.7161  4.523780  2.570060 31.067000
478  2 -0.5473  5.088710  4.950380 24.943500
479  2 -0.5169 16.491300 15.383400 29.151500
480  2 -0.5889  5.547930 13.179800 31.414300
481  2 -0.8058 15.683700  9.618050 40.809700
482  2 -0.7675  5.731230 16.839200 32.912000
483  2 -0.5054  9.420060  6.955310 36.130400
484  2 -0.7541  7.082620 14.382200 37.989400
485  2 -0.6313  7.359870 18.773000 36.164500
486  2 -0.6446 17.272800 21.746700 36.965500
487  2 -0.4998  2.550920 21.995700  2.405530
488  2 -0.7395 13.414100 21.140600 39.579500
489  2 -0.8352  3.993980  7.837810 40.440000
490  2 -0.6471  9.938320 11.748700 35.920700
491  2 -0.5307  7.310380 18.719800 40.103800
492  2 -0.6278 13.168100  3.066500  3.196730
493  2 -0.7388  4.789800  1.153270 39.363600
494  2 -0.6934 11.695500  4.671300 38.303900
495  2 -0.7396 12.983400  0.787870 25.891900
496  2 -0.6464 16.007000  4.934680  0.745075
497  2 -0.5903 15.883400 21.552500 31.898700
498  2 -0.7340  1.372510 17.805600  1.236920
499  2 -0.5667  5.416190 21.758900 35.621600
500  2 -0.9298 11.794900  3.158100 30.198200
501  2 -0.7413  9.121110  0.673728 34.749000
502  2 -0.6028 16.523800  5.076890 34.109100
503  2 -0.5695  0.891266  2.089920 33.757100
504  2 -0.7743  8.739320  5.717920 33.008000

