Generated by pymatgen.io.lammps.data.LammpsData

360  atoms

  2  atom types

0.000000 16.677463  xlo xhi
0.000000 21.699897  ylo yhi
0.000000 28.493178  zlo zhi

Masses

1  208.9804
2   78.9600

Atoms

1    1  0.7618  1.789110 13.241300 20.008700
2    1  0.8926  3.808560 17.177000 20.903600
3    1  0.7186  1.542630  5.584360 20.996200
4    1  0.7547  3.300780 10.011400 21.428300
5    1  0.7892  5.506470 13.409200 20.151900
6    1  0.7753  8.320060 17.974000 20.785000
7    1  0.8660  4.426140 21.038600 19.933900
8    1  0.5549  3.620640  2.805750 20.515400
9    1  0.7843  5.520580  6.568040 21.061500
10   1  0.8261  7.547530 10.281500 20.689700
11   1  0.8801  9.844150 14.092300 20.506200
12   1  0.8060 12.647900 18.032900 20.655200
13   1  0.8310  6.168590 19.752500 24.013000
14   1  0.7936  6.814340  3.010230 20.932900
15   1  0.8107  9.301550  6.668640 22.211400
16   1  0.8281 11.880000 10.733900 19.697400
17   1  0.8130 13.840300 14.120000 20.357400
18   1  0.7988 16.557000 16.658000 21.474400
19   1  0.8209 11.326200  0.215946 21.762100
20   1  0.7677 13.097600  3.596480 20.667300
21   1  0.7733 13.574000  7.360580 21.240500
22   1  0.8232 16.335300 10.638000 20.430500
23   1  0.7346 14.777300 21.142600 22.519700
24   1  0.6787 15.247600  3.137510 23.127700
25   1  0.6976  1.006890 12.698600 28.366600
26   1  0.7707  3.753110 19.102900 27.293000
27   1  0.7972  1.963500  6.717010 28.328000
28   1  0.7968  3.449050  9.684740 26.848200
29   1  0.9172  4.187020 13.768600 25.567200
30   1  0.7830  6.826390 15.950100 26.543500
31   1  0.7152  0.547386  0.595085 25.585800
32   1  0.7107  3.048980  3.034580 25.527500
33   1  0.8049  5.937030  6.972180 26.159500
34   1  0.7337  7.259490 10.370900 26.458600
35   1  0.7835  9.481780 12.744600 25.782200
36   1  0.7811 11.831900 18.343300 26.645000
37   1  0.7286  5.086600  0.483408 27.480000
38   1  0.8196  8.275900  5.070250 25.103700
39   1  0.6047  7.399350  6.335920  1.334290
40   1  0.8186 12.116500 10.287000 24.531600
41   1  0.7526 14.428800 13.424500 26.169700
42   1  0.8563 16.014100 17.519700 27.084500
43   1  0.6696  9.223040 20.972300 27.598600
44   1  0.8056 11.673500  3.213530 27.863900
45   1  0.8895 12.926100  5.396590 25.500100
46   1  0.8760 15.614100  9.633570 26.782700
47   1  0.6132 12.387200 21.046700  0.049354
48   1  0.9062 16.066500  3.727190  0.024967
49   1  0.8194  2.168030 15.553100  1.787550
50   1  0.8501  2.958370 19.436500  3.295550
51   1  0.8025  0.280950  8.458310  2.780750
52   1  0.7580  3.469860 10.852300  1.984100
53   1  0.7625  5.540710 14.439000  1.958810
54   1  0.8130  7.236250 18.932000  1.606660
55   1  0.7955  1.083310 21.093800 28.251900
56   1  0.7373  4.437290  4.988330  2.023280
57   1  0.5977  4.885240  7.900340  3.574520
58   1  0.6984  7.206290 11.160400  1.106280
59   1  0.8494  9.189290 15.811000  1.182660
60   1  0.7419 11.242600 18.757900  2.052410
61   1  0.9530  5.232710  1.081500  2.595830
62   1  0.7036  8.448410  2.491820  0.289401
63   1  0.8645 10.001700  8.552690  0.677001
64   1  0.8261 11.481100 12.674200  0.599622
65   1  0.8268 13.761500 15.272100  1.744960
66   1  0.8279 15.514800 19.528500  1.976850
67   1  0.8193  9.398030  0.395477  3.610280
68   1  0.7105 10.583600  4.029850  2.784790
69   1  0.8901 13.454800  9.197650  1.414960
70   1  0.7745 15.685600 12.392700  3.654940
71   1  0.8371 14.461900  1.631200  2.725600
72   1  0.8014 14.444700  5.153500  3.137360
73   1  0.6655 16.645100 16.784600  9.174490
74   1  0.8175  5.863980 20.524100  6.343010
75   1  0.7764 16.677200  9.319310  6.410020
76   1  0.7795  2.317330 12.181200 10.194800
77   1  0.8576  6.428890 17.533900  8.922400
78   1  0.8335  9.161840 17.024200  5.385940
79   1  0.6555  1.814040 21.039600  7.278760
80   1  0.7076  3.381880  6.707950  5.916280
81   1  0.7170  4.471690  9.145540  7.167510
82   1  0.7736  6.259460 11.000300 10.065900
83   1  0.6975 10.688700 19.848000 10.534300
84   1  0.8488 12.575700 20.067200  5.864040
85   1  0.7489  4.530040  1.733120  7.643660
86   1  0.8825  7.137260  5.334650  7.508440
87   1  0.7085  9.111330  6.709240  4.090570
88   1  0.7876 12.261100 11.694700  5.991010
89   1  0.8138 12.674200 15.305200  5.748430
90   1  0.6967 15.009400 19.786500  8.372390
91   1  0.6648  8.828050 21.546600  7.883550
92   1  0.7894 10.552800  3.383320  7.155370
93   1  0.8061 12.876600  8.231080  4.861270
94   1  0.7929 15.760200 13.515900  8.364500
95   1  0.7638 15.495800  1.623080  8.976730
96   1  0.9166 15.633100  3.709600  6.060430
97   1  0.8073 14.199800 15.073200 11.507300
98   1  0.7073  2.522110 19.395500 10.023600
99   1  0.7878 16.053100  5.984930 13.573700
100  1  0.9721 16.575600 12.056800 13.511300
101  1  0.8239  3.555170 13.976000 13.350800
102  1  0.7696  6.401000 20.120500 11.913200
103  1  0.8757 16.309400 21.323400 14.812100
104  1  0.8537  2.145070  5.128000  8.928100
105  1  0.8106  0.794784  7.627240 10.985100
106  1  0.8158  5.013140 10.362600 13.776500
107  1  0.7495  5.652350 16.546000 12.500900
108  1  0.8078 10.606400 15.501200 12.853100
109  1  0.8143  1.797190  1.589870 11.831200
110  1  0.8244  5.109070  7.089310 10.972900
111  1  0.7823 10.140800  7.713950 11.312400
112  1  0.8700  9.683410 12.019100 12.122300
113  1  0.8062 10.246600 15.020800  8.335230
114  1  0.7973 13.765300 17.842200 13.064700
115  1  0.8868 12.401300  1.270950 13.810100
116  1  0.8573  9.641220  2.733420 10.597400
117  1  0.7658 11.789700  6.961580  8.030020
118  1  0.8463 13.885300  8.996740 11.307700
119  1  0.7745 12.427000  5.594500 13.623800
120  1  0.7880 13.194200  3.955840 10.873900
121  1  0.6935 15.259000 16.547700 17.878500
122  1  0.7992  1.434150 18.355000 17.639800
123  1  0.8370 15.951100  7.759930 17.562800
124  1  0.8104  1.051400 11.031400 17.243800
125  1  0.8372  3.531030 15.077100 17.218100
126  1  0.8527  5.933580 17.896200 16.915700
127  1  0.7702 15.820300 21.128200 18.240900
128  1  0.7308  0.362228  2.897920 19.067300
129  1  0.7664  3.073380  7.665250 17.592300
130  1  0.8063  5.392090 11.019600 17.479400
131  1  0.7911  7.279440 14.179800 16.711800
132  1  0.6513  9.348210 19.400800 14.589800
133  1  0.7957  3.635590  0.132045 16.382600
134  1  0.7858  4.716460  3.970550 17.370500
135  1  0.7344  5.941420  8.157180 16.588700
136  1  0.8722  9.357430 11.182700 16.465700
137  1  0.9111 11.237900 14.928300 16.253200
138  1  0.7852  0.427583 16.416000 14.173200
139  1  0.8119  7.100010  1.263340 15.665400
140  1  0.8051  9.297600  4.381670 17.978400
141  1  0.7940 11.673300  7.798970 17.547700
142  1  0.9661 13.898700 11.819500 16.809800
143  1  0.8271 12.072900 19.445500 16.601700
144  1  0.8565 14.125400  3.552070 16.894300
145  2 -0.6733 16.598900 15.291700  0.726342
146  2 -0.7249  1.182280 18.560700  0.073894
147  2 -0.5850 15.231900  8.003220  0.020094
148  2 -0.7704  1.266040  9.970820  0.546848
149  2 -0.5802  2.946470 15.216000 27.878100
150  2 -0.5904  4.689350 17.731600  1.240990
151  2 -0.6248 15.298800  0.876768  0.050382
152  2 -0.6168  1.667610  1.891080 27.807200
153  2 -0.8296  4.838640  8.196410  0.431455
154  2 -0.7358  4.763280 12.150700 27.737400
155  2 -0.7619  7.487110 14.195200 28.299700
156  2 -0.8133  9.417920 17.971500 28.337000
157  2 -0.0951  1.643480  3.399910  4.651760
158  2 -0.6212  6.373520  4.506920 27.531400
159  2 -0.7117  8.081910  7.839120 27.365500
160  2 -0.7500 10.620100 11.050000 27.563900
161  2 -0.6623 12.144900 15.085800 28.278200
162  2 -0.7660 13.517700 18.326800  0.683056
163  2 -0.8044  7.247350  0.117973  1.152610
164  2 -0.6953  9.862580  4.966630  0.437582
165  2 -0.3565 12.164500  7.034580 28.007700
166  2 -0.7683 13.993400 11.325200  0.369474
167  2 -0.8835 10.543400  1.603530  1.674390
168  2 -0.7648 13.651300  3.961000  1.107210
169  2 -0.2223  0.625190 16.678900 24.222200
170  2 -0.5580  1.822090 20.030400 25.565600
171  2 -0.2571  0.869023  8.423450 25.435700
172  2 -0.4106  1.977340 12.173000 25.477500
173  2 -0.3402  4.235010 16.645500 25.032000
174  2 -0.7124  6.413330 19.698700 27.029700
175  2 -0.4835  4.376380  2.713050  0.363803
176  2 -0.3978  3.642690  6.076270 25.466900
177  2 -0.4871  5.208750  9.521160 25.058300
178  2 -0.4501  6.716500 13.165100 25.082900
179  2 -0.3297  9.073420 16.368700 25.052800
180  2 -0.5059 11.318000  0.050796 26.193300
181  2 -0.3265  6.584930  2.149540 25.140000
182  2 -0.4282 10.469100  6.859050 25.071700
183  2 -0.4317  9.184620 10.453500 24.476400
184  2 -0.3722 12.300700 13.419500 24.447700
185  2 -0.3691 13.816000 16.257900 25.873500
186  2 -0.4581 15.087400 20.334300 26.091100
187  2 -0.2966  8.407180 21.688300 24.706200
188  2 -0.3529 10.280200  3.087500 25.165300
189  2 -0.3979 14.002700  7.869690 25.496200
190  2 -0.4065 15.506300 11.429600 24.754400
191  2 -0.4683 13.970900  2.756590 26.156300
192  2 -0.4781  0.543340  5.131240 26.787000
193  2 -0.3582 15.394000 14.406200 22.525200
194  2 -0.4253  3.557480 19.350700 22.387600
195  2 -0.3055 15.873300  8.225980 22.529300
196  2 -0.3848  0.885485 12.569000 22.333600
197  2 -0.4265  3.616350 14.642400 22.208000
198  2 -0.4812  6.421910 17.375500 22.399200
199  2 -0.6084  0.871822  1.354720 22.640600
200  2 -0.4956  0.833480  4.776620 23.372400
201  2 -0.4417  3.317090  7.442700 22.485300
202  2 -0.3945  5.607210 11.470000 22.445200
203  2 -0.2981  7.374290 14.400200 22.171100
204  2 -0.4120 10.597000 18.576200 22.710100
205  2 -0.4559  4.618950  1.188410 22.900900
206  2 -0.6134  6.622700  4.831050 22.798800
207  2 -0.4924  7.202430  8.059700 22.660100
208  2 -0.4910  9.686560 11.723700 21.492200
209  2 -0.4428 12.245100 15.560600 21.850900
210  2 -0.3848 14.328600 18.353600 23.191800
211  2 -0.4230  6.929330 20.762700 21.686700
212  2 -0.4299  9.405580  3.952490 21.523300
213  2 -0.5354 11.352300  8.876900 22.271400
214  2 -0.4976 13.833600 11.192300 21.424000
215  2 -0.4981 13.190100  1.303390 23.808900
216  2 -0.6545 12.704200  5.220160 22.813500
217  2 -0.6807 16.594300 13.828800 11.219600
218  2 -0.3164  7.217780 15.232400  7.540800
219  2 -0.6183  2.170890  8.577900  8.217910
220  2 -0.6372  3.500820  9.628360 10.388700
221  2 -0.3805  4.428450 13.689700  9.519390
222  2 -0.7363  7.785510 19.087600  7.323460
223  2 -0.7650  0.680314 21.367200  9.643210
224  2 -0.3673  3.984500  3.235850 10.154100
225  2 -0.6629  4.967970  6.007560  8.695420
226  2 -0.5349  7.578230  9.400170 11.847900
227  2 -0.3116  8.795380 11.321900  9.157260
228  2 -0.5462 10.933100 17.090400 10.439900
229  2 -0.7832  5.123940 20.447000  8.761850
230  2 -0.5403  7.631670  2.900940  8.645520
231  2 -0.6950 10.406400  5.113600  9.613640
232  2 -0.4624 11.689700  9.424260  9.847050
233  2 -0.5568 12.888300 13.435700  8.106810
234  2 -0.6277 14.097800 16.295100  9.182800
235  2 -0.7424  7.545930 18.038100 11.346900
236  2 -0.6135 12.068900  1.575890  9.437700
237  2 -0.3186 15.779900  7.171420  8.814900
238  2 -0.3959 15.642400 11.102200 10.248500
239  2 -0.4193 15.634400  0.586234 12.275000
240  2 -0.5384  1.500830  2.509290  7.654910
241  2 -0.5251 15.393900 14.588000  6.155680
242  2 -0.3015  3.466300 18.073100  5.914700
243  2 -0.6245 14.996100  6.513920  5.101080
244  2 -0.3488  1.909070 12.317500  6.979010
245  2 -0.0504  2.551790 15.283000  5.382310
246  2  0.0220  7.700020 11.516900  5.708450
247  2 -0.4158 15.149700 21.675800  5.895160
248  2 -0.4687  1.147620  5.784030  6.297580
249  2 -0.5917  6.506280  8.014530  5.967680
250  2 -0.0276  5.582590 12.538700  6.148200
251  2 -0.3869  9.890030 14.171800  5.431010
252  2 -0.5732 11.444800 17.933000  7.217750
253  2 -0.3419  0.369069  0.294371  3.265720
254  2 -0.4927  3.323550 21.699300  4.903880
255  2 -0.4509  7.780420  7.543320  8.874570
256  2 -0.4766 10.825300  9.096030  6.103450
257  2 -0.5722 11.237600 16.236700  3.176080
258  2 -0.4881 16.506000 18.528700  6.834470
259  2 -0.4828 13.503800 20.157300 11.087600
260  2 -0.4633  6.646740  1.373860  5.428050
261  2 -0.6389 12.034300  5.271340  5.611080
262  2 -0.4384 14.027900  9.995580  7.825670
263  2 -0.6285 10.712000  0.755820  6.081030
264  2 -0.5317 15.405400  4.055080  8.780010
265  2 -0.6297  1.468580 12.572600  2.712210
266  2 -0.0234  4.634910 15.201500  5.435810
267  2 -0.6746  2.206310  6.496150  2.385450
268  2 -0.6809  2.462410  9.251050  4.540540
269  2 -0.5118  5.472900 11.726600  3.146010
270  2 -0.5619  7.202660 16.469900  2.932100
271  2 -0.6527  3.408310 21.319000  1.111190
272  2 -0.4081  4.761050  4.180250  5.877990
273  2 -0.5491  6.562400  4.215510  3.350270
274  2 -0.6216  8.075640  8.821860  2.717610
275  2 -0.3471  9.041000 13.231400  2.484930
276  2 -0.3838 13.561900 18.049300  4.378310
277  2 -0.5549  5.933040 20.168600  3.603620
278  2 -0.1185  2.462800  2.874250  2.530390
279  2 -0.5570  8.644180  3.990160  5.450490
280  2 -0.4528 11.203200 10.369900  2.421820
281  2 -0.6321 12.962400 13.449300  3.597520
282  2 -0.3424  0.474760 17.378400  3.513280
283  2 -0.6843  9.747960 19.390800  4.126800
284  2 -0.5199 13.808700  2.256290  5.569960
285  2 -0.6720 11.709800  7.088920  2.658830
286  2 -0.8127 14.852300  9.903400  3.698370
287  2 -0.6500 13.447100 20.899600  2.997820
288  2 -0.4683  0.063190  4.268160  2.459180
289  2 -0.8413  1.872250 15.943800 19.367800
290  2 -0.6568  4.059320 18.764700 18.555600
291  2 -0.8221  1.309840  8.665630 19.197400
292  2 -0.8980  3.369130 12.217600 18.486600
293  2 -0.7170  5.604520 15.761100 18.839400
294  2 -0.4878  7.333440 19.743400 18.370400
295  2 -0.7214  2.362900  0.275067 18.903300
296  2 -0.7585  2.460760  4.807230 18.480400
297  2 -0.8756  5.172030  8.399590 19.246100
298  2 -0.8414  7.487120 12.391200 18.495100
299  2 -0.5965  9.374040 15.751300 18.346100
300  2 -0.6232 12.981200 20.353700 19.928800
301  2 -0.8074  5.651180  1.881710 18.561500
302  2 -0.7881  7.231360  4.968170 19.161400
303  2 -0.6128  8.665430  8.995990 18.349800
304  2 -0.7194 11.706000 13.230700 18.921300
305  2 -0.6272 12.447400 16.929400 18.265300
306  2 -0.7494 16.025800 18.525000 19.751600
307  2 -0.4195 11.316100  1.701070 19.646800
308  2 -0.7077 12.207900  5.728220 19.544800
309  2 -0.6728 14.385200  9.850960 18.751000
310  2 -0.7829 15.955700 12.662400 18.714700
311  2 -0.7267 14.917100  1.720490 19.739600
312  2 -0.6444 15.641900  5.358460 19.010600
313  2 -0.5609  1.107440 13.734500 15.291900
314  2 -0.5594  3.472740 17.266300 15.629700
315  2 -0.3303  0.970081  6.023820 15.898100
316  2 -0.6198  3.204750 10.455000 16.003800
317  2 -0.6498  4.664370 13.506600 15.596600
318  2 -0.6337  7.506730 16.689100 14.619000
319  2 -0.4394 16.542800  3.155320 16.263500
320  2 -0.4451  4.406750  2.378600 15.114500
321  2 -0.4332  4.776750  6.126130 15.506900
322  2 -0.7114  7.010660 10.325900 15.314100
323  2 -0.7049  9.813580 13.332600 14.917900
324  2 -0.7386 11.909300 16.809900 14.689600
325  2 -0.6144  6.468810 20.424900 14.749100
326  2 -0.2683  8.055470  3.201300 14.577000
327  2 -0.3952 10.146100  6.242840 15.357400
328  2 -0.6703 12.060900 10.351600 17.021200
329  2 -0.5039 13.913200 14.596300 16.429200
330  2 -0.6275 15.646300 18.739300 16.188100
331  2 -0.4227 10.304600 21.194600 17.176700
332  2 -0.4262 11.530600  3.039940 15.887300
333  2 -0.6314 13.803700  6.311970 15.538700
334  2 -0.4450 15.474500  9.810020 15.723500
335  2 -0.5994  1.973860 20.156700 15.780800
336  2 -0.5547 14.407600  0.493735 16.298900
337  2 -0.6069  2.538350 16.393600 12.095300
338  2 -0.4417  3.002490 20.732500 12.357500
339  2 -0.4898 16.485600  8.988820 13.050000
340  2 -0.6334  2.344460 11.722600 12.948900
341  2 -0.3958  3.677760 17.066100  8.605960
342  2 -0.6093  9.680050  0.075431 12.131100
343  2 -0.0852  2.793870  4.126730 13.188600
344  2 -0.5606  0.812159  4.950450 11.108800
345  2 -0.4018  2.939190  7.087610 12.673000
346  2 -0.5557  6.138220 12.805700 12.271100
347  2 -0.5000  8.995010 14.376100 10.896000
348  2 -0.2858  6.203580  1.133450 12.097500
349  2 -0.0686  5.839710  4.885500 12.214400
350  2 -0.1815  8.169340  5.318400 12.210400
351  2 -0.3842 10.613900  9.569170 13.449500
352  2 -0.4301 12.308200 13.497500 11.294100
353  2 -0.5385 14.596800 15.019100 13.898500
354  2 -0.5211 16.425400 18.524600 12.590500
355  2 -0.6720 11.339400  3.414100 12.668600
356  2 -0.7134 13.664500  6.355790 10.600900
357  2 -0.2223 13.042200  8.995150 14.461800
358  2 -0.3339 14.085500 11.685600 13.463300
359  2 -0.5623 12.874300 20.240200 14.269500
360  2 -0.5505 14.587600  3.419500 13.619200

