Generated by pymatgen.io.lammps.data.LammpsData

320  atoms

  2  atom types

0.000000 24.637781  xlo xhi
0.000000 17.058433  ylo yhi
0.000000 27.370788  zlo zhi

Masses

1  208.9804
2   78.9600

Atoms

1    1  0.7453 21.853800  1.459320  0.715190
2    1  0.7567 -1.443920  1.259960 14.513600
3    1  0.7391 21.766000  9.978210  0.750769
4    1  0.7152 -1.623830 10.087400 14.204900
5    1  0.7252  9.754080 18.334200  1.100290
6    1  0.7613 10.655600 18.255200 14.398300
7    1  0.7052  9.363500  9.723400  0.498693
8    1  0.7743 10.914500  9.678990 14.517800
9    1  0.7818  4.384250  5.484810 10.316000
10   1  0.7471  3.255740  5.828270 24.122400
11   1  0.7717  4.530820 14.233000 10.180800
12   1  0.7013  3.375490 14.281700 24.536800
13   1  0.7258 16.532100  5.857190 10.414300
14   1  0.8016 15.477800  5.568540 23.990800
15   1  0.7695 16.793400 14.050300 10.176200
16   1  0.7747 15.846100 14.449700 24.171500
17   1  0.7219  5.048760  5.457840  6.361020
18   1  0.7698  3.113260  5.691300 20.067800
19   1  0.7461  4.267350 14.126400  6.147570
20   1  0.7470  3.133730 14.615300 19.622800
21   1  0.6791 16.688300  5.624960  6.520510
22   1  0.7407 15.350400  5.267740 19.717600
23   1  0.7466 16.452900 13.965300  6.305480
24   1  0.7332 15.432400 14.301900 20.040900
25   1  0.7554 -1.595240  1.204640 10.354000
26   1  0.8069 21.722200  1.552660 24.037100
27   1  0.7365 -1.631040  9.735060  9.876550
28   1  0.7860 21.751600 10.087900 23.771900
29   1  0.7572 10.685100  1.364310 10.313100
30   1  0.7917  9.784280 18.292200 24.312700
31   1  0.7364 10.497400  9.633340 10.499800
32   1  0.7716  9.661760  9.941330 24.079100
33   1  0.7251 21.511600  5.725870  0.780837
34   1  0.7539 -1.533800  5.927890 14.192600
35   1  0.7163 21.450300 14.148200  0.699431
36   1  0.7378 -1.679940 14.092400 14.443400
37   1  0.7094  9.324230  5.731960  0.964150
38   1  0.7324 10.773500  5.495700 14.678800
39   1  0.8119  9.537760 13.956500  0.829578
40   1  0.7397 10.693500 13.891100 14.489100
41   1  0.7951 -1.842850  5.576850 10.410800
42   1  0.7559 22.142700  5.734630 23.932900
43   1  0.7556 -1.721660 14.113800 10.221300
44   1  0.7796 21.908000 14.588000 24.072400
45   1  0.7315 10.603400  5.433630 10.494400
46   1  0.7669  9.692940  5.476420 24.157800
47   1  0.7224 10.328000 14.358500 10.096200
48   1  0.7989  9.792440 14.028500 24.234000
49   1  0.8164  4.899730  1.438040  6.520540
50   1  0.6643  2.948490  1.493050 20.054900
51   1  0.7459  4.674630  9.960510  6.491700
52   1  0.7469  3.020910  9.935470 20.142100
53   1  0.7426 16.488300  1.482320  6.106180
54   1  0.7458 15.274800 18.272000 19.910300
55   1  0.7688 16.535100  9.903490  6.178740
56   1  0.7784 15.497900 10.165200 19.811900
57   1  0.7876  4.474600 18.219600 10.341600
58   1  0.7096  3.421340  1.507380 24.166100
59   1  0.7999  4.197410  9.531660 10.761100
60   1  0.7106  3.379540  9.839650 24.074700
61   1  0.7728 17.099400 18.662400 10.459200
62   1  0.7886 15.505600  1.296480 24.048800
63   1  0.8276 16.534800 10.020100 10.446300
64   1  0.7431 15.721000  9.643840 23.815300
65   1  0.8015  0.407284  7.975830 26.361200
66   1  0.8576  1.196110  7.590630 12.106900
67   1  0.7961 -0.104298 16.598800 26.217800
68   1  0.8058  1.191110 16.164900 12.120200
69   1  0.8202 12.440400  8.101790 26.365500
70   1  0.8158 13.381500  7.762660 12.399600
71   1  0.7449 12.771100 16.113200 26.824900
72   1  0.8350 13.413600 16.025700 12.259900
73   1  0.8113  6.555870  7.745260 25.741200
74   1  0.8149  7.771080  7.884620 12.589100
75   1  0.7534  6.948360 16.090800 26.014000
76   1  0.7959  7.680700 16.408100 12.627100
77   1  0.8033 18.642800  7.750740 25.744300
78   1  0.8125 19.881900  7.720400 12.531300
79   1  0.7900 18.872100 16.447300 25.742400
80   1  0.7713 20.160700 16.090200 12.290400
81   1  0.7727  0.020972  3.492320 26.277000
82   1  0.8525  1.423760  3.280470 12.078900
83   1  0.7708 -0.055493 12.286800 26.211400
84   1  0.8097  0.997179 11.813300 11.884100
85   1  0.7812 12.573100  3.704210 26.365700
86   1  0.8624 13.868500  3.086650 12.267300
87   1  0.7944 12.805900 11.994500 26.166300
88   1  0.8480 13.458000 11.924800 12.587300
89   1  0.7976  6.548520  3.535570 26.112800
90   1  0.7497  7.966700  3.347300 12.786600
91   1  0.8187  6.546030 12.066300 25.764300
92   1  0.7865  7.746030 11.805100 12.413800
93   1  0.8160 18.793800  3.629330 25.552000
94   1  0.7897 20.175000  3.749590 12.664200
95   1  0.8312 18.959100 11.844900 25.936200
96   1  0.8160 19.917700 11.917400 12.556900
97   1  0.7964  1.496360  7.545680  8.223080
98   1  0.7985  0.579660  7.981960 22.280600
99   1  0.7816  1.683950 16.412700  8.186590
100  1  0.8548  0.264079 16.278500 22.322200
101  1  0.7776 13.585900  7.670860  8.266150
102  1  0.8111 12.844100  7.771000 21.870200
103  1  0.7840 13.724500 16.383100  8.363700
104  1  0.7605 12.803000 16.098800 22.309700
105  1  0.8122  7.733180  7.557100  8.577330
106  1  0.7786  6.454040  7.781760 21.953200
107  1  0.8307  7.274670 16.308900  8.617720
108  1  0.7839  6.083200 16.117400 21.977100
109  1  0.7872 19.768200  7.720680  8.635760
110  1  0.7756 18.415400  7.445360 21.634700
111  1  0.7592 19.425800 15.931100  8.340390
112  1  0.8462 18.853100 16.114700 21.847900
113  1  0.8036  1.594750  3.576810  8.067440
114  1  0.7855  0.431946  3.626030 22.277900
115  1  0.7512  1.484050 11.668500  8.206840
116  1  0.8040  0.213033 11.993300 22.230300
117  1  0.7785 13.758000  3.522970  8.212490
118  1  0.7890 12.470100  3.471220 22.485100
119  1  0.7925 13.555200 11.984300  8.329820
120  1  0.8468 12.689600 12.072500 22.152500
121  1  0.8278  7.406530  3.406960  8.526550
122  1  0.8233  6.663070  3.492790 22.004200
123  1  0.8103  7.329640 11.930600  8.480030
124  1  0.7903  6.318270 12.155300 21.864200
125  1  0.8255 19.505500  3.370060  8.412390
126  1  0.7969 18.179400  3.614340 21.967000
127  1  0.7647 19.473600 11.876300  8.411660
128  1  0.8192 18.393800 12.224100 22.136000
129  2 -0.7866  7.648950  5.510060 10.672100
130  2 -0.8007  6.657620  5.601750 24.105800
131  2 -0.8013  7.462290 14.080800 10.415400
132  2 -0.8215  6.824890 14.031700 23.885400
133  2 -0.8012 19.886600  5.476030 10.471600
134  2 -0.8736 18.151300  5.729420 23.783600
135  2 -0.8378 19.853900 13.942100 10.333800
136  2 -0.8424 18.755600 14.367900 23.818300
137  2 -0.8234  1.460260  5.584950 10.192700
138  2 -0.8361  0.367894  5.933440 24.211400
139  2 -0.8069  1.175340 14.003200 10.053000
140  2 -0.8171  0.266444 14.381500 24.179600
141  2 -0.8228 13.573100  5.517700 10.371600
142  2 -0.8094 12.711000  5.781310 24.275600
143  2 -0.7836 13.757800 14.065300 10.336100
144  2 -0.8473 12.835800 13.950800 24.022000
145  2 -0.0801 20.218200  3.639710  3.988700
146  2 -0.0886 -0.448432  3.588600 17.361200
147  2 -0.0668 19.214300 12.380600  3.613520
148  2 -0.0970 -0.396546 11.969000 17.638900
149  2 -0.1303  8.392140  3.902750  3.638580
150  2 -0.1388 12.128000  3.239550 17.274500
151  2 -0.0677  8.243570 12.266800  3.853950
152  2 -0.1005 11.933400 11.810800 17.566000
153  2 -0.1145 20.037600  7.777710  3.703430
154  2 -0.0893 -0.416013  7.814050 17.385900
155  2 -0.0882 19.865000 16.465700  3.498290
156  2 -0.1325 -0.319333 16.199500 17.390200
157  2 -0.0928  8.199920  7.718220  3.973540
158  2 -0.1320 12.230700  7.918620 17.437000
159  2 -0.0550  7.872670 16.070200  3.997620
160  2 -0.0977 12.081900 16.445800 17.435300
161  2 -0.8277  7.438910  1.416420 10.461000
162  2 -0.7662  6.450360 18.173100 23.868400
163  2 -0.8329  7.459260  9.477730 10.502200
164  2 -0.8297  6.581530 10.116800 23.901400
165  2 -0.7655 20.085300  1.607680 10.471500
166  2 -0.8064 18.583700  1.588130 23.796300
167  2 -0.7875 19.592000  9.792230 10.782500
168  2 -0.7926 18.932300  9.888210 23.760500
169  2 -0.8509  1.545030  1.313630 10.297700
170  2 -0.8185  0.172884 18.603000 24.228800
171  2 -0.8797  1.386710  9.578120 10.122900
172  2 -0.8196  0.225046 10.029900 24.331000
173  2 -0.8080 13.728700 18.279800 10.361000
174  2 -0.8111 12.447700 18.385300 24.623500
175  2 -0.7931 13.615100  9.940560 10.348100
176  2 -0.8058 12.566400  9.890920 24.489900
177  2 -0.1030  6.270850  3.879160  3.217620
178  2 -0.1038  1.668570  3.665060 16.949600
179  2 -0.0745  6.104720 12.123900  3.197170
180  2 -0.1035  1.764500 11.922800 17.113500
181  2 -0.1065 18.088900  3.733430  3.514420
182  2 -0.1078 14.296000  3.022420 16.748300
183  2 -0.1199 17.034500 12.285600  3.369430
184  2 -0.1355 14.378000 12.022300 17.200000
185  2 -0.1086  5.975420  7.818730  3.461970
186  2 -0.0792  1.652030  7.839140 16.889600
187  2 -0.0901  5.814130 16.104600  3.339590
188  2 -0.1356  1.795380 15.984900 16.772900
189  2 -0.0708 17.947100  7.624780  3.169990
190  2 -0.0930 14.381400  8.012490 16.946800
191  2 -0.0562 17.769800 16.360200  2.994430
192  2 -0.0933 14.163100 16.288000 16.838400
193  2 -0.4217  1.958480  5.480550  6.056890
194  2 -0.4311  0.408093  5.742560 20.232100
195  2 -0.3859  1.522660 14.019600  5.959500
196  2 -0.3808  0.290791 14.389400 20.084900
197  2 -0.4101 13.722700  5.554880  6.149990
198  2 -0.3890 12.369100  5.525970 20.015600
199  2 -0.4321 13.533700 14.289500  6.245050
200  2 -0.4187 12.676700 14.074400 20.009900
201  2 -0.4376  7.749050  5.579100  6.542460
202  2 -0.4502  5.873630  5.517780 19.992500
203  2 -0.4732  6.846150 14.151500  6.533030
204  2 -0.4265  5.923160 14.561700 19.624700
205  2 -0.4050 19.725800  5.761130  6.579530
206  2 -0.4946 18.101100  5.372900 19.807900
207  2 -0.4159 19.256300 14.284400  6.113630
208  2 -0.4500 18.616700 14.005100 20.155100
209  2 -0.9051 -1.579680  7.781590 12.026400
210  2 -0.8189 21.703000  8.012480 25.941500
211  2 -0.9189 -1.654420 16.115400 12.474900
212  2 -0.9566 21.893700 16.608100 26.060300
213  2 -0.9490 10.683700  7.772430 12.596100
214  2 -0.9189  9.599730  7.654000 25.961700
215  2 -0.9197 10.429000 16.386300 12.251400
216  2 -0.8874  9.861400 16.052600 26.309800
217  2 -0.8510 -1.536860  3.439980 12.406400
218  2 -0.9060 21.783500  3.695060 25.828900
219  2 -0.8916 -1.917990 11.898600 12.013200
220  2 -0.9048 21.637100 12.239500 25.922400
221  2 -0.8890 10.888600  3.178360 12.579200
222  2 -0.8721  9.559240  3.211190 26.119200
223  2 -0.8903 10.705600 12.014700 12.486300
224  2 -0.8850  9.529490 12.236200 26.143200
225  2 -0.4737 -0.150546 18.547300  0.921802
226  2 -0.4097  1.354080  1.380890 14.245300
227  2 -0.4787 -0.305010 10.091300  0.909918
228  2 -0.5062  0.967455 10.068300 13.876100
229  2 -0.3503 12.761900  1.466000  1.562380
230  2 -0.4083 13.710000 17.927500 14.083600
231  2 -0.4533 12.164500  9.915720  1.063930
232  2 -0.4927 13.450100  9.848010 14.375600
233  2 -0.3940  6.909200 18.258600  1.032470
234  2 -0.4610  7.913610 18.325900 14.812500
235  2 -0.3524  6.364500  9.907720  0.619114
236  2 -0.4758  7.993730  9.650060 14.562000
237  2 -0.3879 18.854800  1.585770  0.391106
238  2 -0.3707 20.245500 18.368300 14.639400
239  2 -0.4147 18.798100  9.946900  0.571427
240  2 -0.4076 19.882500  9.708540 14.565100
241  2 -0.8484  4.491530  7.598730  8.551230
242  2 -0.9378  3.347980  7.811560 21.995800
243  2 -0.9438  4.596890 16.413900  8.308550
244  2 -0.8598  3.030090 16.294900 22.363700
245  2 -0.8885 16.558200  8.024520  8.512990
246  2 -0.8932 15.567900  7.538030 21.736800
247  2 -0.8739 16.524800 16.169100  8.391080
248  2 -0.9205 15.754100 16.261000 22.084700
249  2 -0.9442  4.603900  3.306670  8.348130
250  2 -0.8727  3.438700  3.564510 22.050300
251  2 -0.8711  4.422910 11.866700  8.504400
252  2 -0.8011  3.187330 12.355100 21.839200
253  2 -0.9409 16.714700  3.368820  8.265580
254  2 -0.8897 15.314300  3.247060 22.156100
255  2 -0.9154 16.450800 11.806000  8.062910
256  2 -0.8635 15.576600 12.087800 22.033600
257  2 -0.4374  6.481460  5.715300  0.415101
258  2 -0.4061  7.855420  5.698480 14.754200
259  2 -0.4746  6.737080 13.881100  0.458486
260  2 -0.4437  7.758770 14.046000 14.232700
261  2 -0.4009 18.806100  5.693390  0.621671
262  2 -0.5116 20.217300  5.888840 14.440900
263  2 -0.3749 18.599600 13.964800  0.608047
264  2 -0.4594 20.289600 14.347400 14.555000
265  2 -0.4320 -0.325649  5.428450  1.063200
266  2 -0.4508  1.020520  5.695530 14.153800
267  2 -0.4291 -0.379963 14.335900  1.069710
268  2 -0.3945  1.278360 14.011800 13.991900
269  2 -0.4159 12.398000  5.595470  1.024820
270  2 -0.3910 13.581800  5.329100 14.398400
271  2 -0.4795 12.220900 14.089300  1.267900
272  2 -0.4508 13.501100 14.051500 14.358800
273  2 -0.4350 -1.548520  3.367880  8.505560
274  2 -0.4259 22.155600  3.577080 22.010700
275  2 -0.4010 -2.092190 12.452800  7.899850
276  2 -0.4437 21.803400 12.657400 22.084300
277  2 -0.4427 10.347300  3.458820  8.316190
278  2 -0.5041  9.713440  3.240370 22.188400
279  2 -0.4726 10.369600 11.657800  8.414940
280  2 -0.4788  9.711330 11.937500 22.167800
281  2 -0.5122 -2.124030  7.431150  8.307360
282  2 -0.4113 21.859300  7.800290 21.841600
283  2 -0.3893 -1.371430 16.477200  8.042200
284  2 -0.5223 21.940400 16.726800 22.232700
285  2 -0.4631 10.567100  7.558430  8.248830
286  2 -0.4493  9.569650  7.633570 22.043200
287  2 -0.4331 10.336100 16.465500  8.065550
288  2 -0.3661  9.820110 16.326900 21.938400
289  2 -0.4459  7.423520 18.357400  6.521000
290  2 -0.3816  6.210420 18.251900 20.026000
291  2 -0.3886  7.515330 10.069700  6.369870
292  2 -0.4345  5.874740 10.114400 19.842500
293  2 -0.4186 19.410700  1.138660  6.381490
294  2 -0.4162 18.024900 18.357600 19.748700
295  2 -0.4101 19.580100 10.173900  6.262900
296  2 -0.3739 18.166300 10.296400 19.478900
297  2 -0.4591  2.080750  1.324610  6.233480
298  2 -0.3487 -0.067468 18.540800 20.101800
299  2 -0.4747  1.917030  9.673410  6.130890
300  2 -0.4773  0.173052  9.870160 20.412200
301  2 -0.4252 13.612900 18.753100  6.192820
302  2 -0.3887 12.589600 18.309400 20.078800
303  2 -0.3739 13.710300  9.543490  5.974510
304  2 -0.4930 12.886900  9.942470 20.232700
305  2 -0.4105  4.261720  3.260340 12.515500
306  2 -0.4101  3.546270  3.850280 26.386100
307  2 -0.3861  4.528740 11.995900 12.325300
308  2 -0.4134  3.330870 11.587400 26.339300
309  2 -0.4676 16.719500  3.549380 12.420800
310  2 -0.4586 15.691400  3.234080 25.942500
311  2 -0.4852 16.784700 12.167800 12.192700
312  2 -0.5115 16.040000 12.062200 25.628400
313  2 -0.4545  4.191300  7.393740 12.440200
314  2 -0.5033  3.624770  7.911590 26.000100
315  2 -0.4396  4.282610 15.979300 12.349500
316  2 -0.3875  3.447870 16.412600 26.634300
317  2 -0.4517 16.515300  7.840020 12.375200
318  2 -0.4759 15.690200  7.967630 25.987500
319  2 -0.4269 17.009000 16.424200 12.120400
320  2 -0.4334 16.209800 16.541300 26.465300

