Generated by pymatgen.io.lammps.data.LammpsData

216  atoms

  2  atom types

0.000000 18.096178  xlo xhi
0.000000 18.140645  ylo yhi
0.000000 18.233787  zlo zhi

Masses

1  208.9804
2   78.9600

Atoms

1    1  0.7833 -0.056384  0.339464 18.364000
2    1  0.7915  0.449414 -0.020269  5.327030
3    1  0.7785 18.231100  0.181261 11.756400
4    1  0.7832 18.425000  6.562210 17.904200
5    1  0.7439  0.278059  5.921170  5.980230
6    1  0.8287 18.505900  5.767230 11.918700
7    1  0.7219  0.073340 12.616300 17.683300
8    1  0.7427 -0.007633 12.108500  5.662810
9    1  0.8000 17.829500 12.155000 11.900000
10   1  0.8276  6.264120 17.974200 17.310200
11   1  0.8020  5.752390 18.084100  5.649630
12   1  0.8210  6.083510 18.229700 11.862900
13   1  0.7196  6.943570  5.487300  0.023186
14   1  0.8016  6.173890  6.353170  6.121300
15   1  0.8362  6.285070  5.990090 11.921000
16   1  0.7700  6.076590 11.929000 17.948900
17   1  0.6778  6.165070 12.377100  5.710350
18   1  0.7528  6.397940 12.139600 12.372100
19   1  0.7474 11.705900 17.665700 17.832400
20   1  0.8163 12.243600 17.923200  6.395100
21   1  0.7478 12.400900 18.554200 11.655100
22   1  0.7711 12.366600  5.894580 -0.155387
23   1  0.7081 12.141200  5.070410  5.564760
24   1  0.7829 12.851100  5.836940 11.717000
25   1  0.7799 12.740400 11.707500 18.157800
26   1  0.8009 12.492000 11.931800  6.214380
27   1  0.8166 11.989500 12.339200 11.875200
28   1  0.7220 18.579000  3.363740  2.546970
29   1  0.7130 18.437400  3.238100  8.781970
30   1  0.7468  0.578844  3.205640 15.197700
31   1  0.8617  0.640615  9.100380  2.752920
32   1  0.8892 -0.004356  8.939900  8.662680
33   1  0.7230  0.263842  9.342930 15.094500
34   1  0.8143 18.410900 14.401600  3.080630
35   1  0.7886  0.193051 15.287400  8.994390
36   1  0.6422 17.607000 15.267100 15.267400
37   1  0.6897  6.264350  3.074790  2.943840
38   1  0.8433  6.393590  3.342680  8.638740
39   1  0.7986  6.314760  3.177260 14.609100
40   1  0.8768  6.171370  9.239300  2.892430
41   1  0.6383  6.221290  9.520930  9.341970
42   1  0.8655  6.777270  8.634900 15.248600
43   1  0.8023  5.903110 14.824200  2.675640
44   1  0.8556  5.423930 15.482800  8.921490
45   1  0.7236  6.020210 15.034200 14.475800
46   1  0.8650 12.413300  3.034300  2.509510
47   1  0.6712 12.350000  3.051260  8.761640
48   1  0.7564 12.164700  3.401690 15.035800
49   1  0.7376 12.167300  9.182000  2.851700
50   1  0.7928 11.456700  9.028120  8.779600
51   1  0.8511 12.661000  9.120210 15.003100
52   1  0.7585 11.886100 15.163500  3.085460
53   1  0.7913 11.685500 15.009800  8.966960
54   1  0.8288 11.997500 14.929900 14.887200
55   1  0.9059  3.019330 17.504700  2.609570
56   1  0.7948  2.882760  0.369541  8.414670
57   1  0.7627  2.942540 17.694900 14.757400
58   1  0.7066  3.189860  5.643360  2.790020
59   1  0.8175  3.774310  6.453630  9.051270
60   1  0.7862  2.340050  6.131170 14.888400
61   1  0.7930  2.779650 12.030200  2.560700
62   1  0.6512  2.380640 12.129800  8.473540
63   1  0.7680  2.674520 11.764200 14.762700
64   1  0.8080  8.971950 17.899900  2.690790
65   1  0.7714  8.395830 17.907500  8.880930
66   1  0.6874  9.103980 17.813600 14.553000
67   1  0.7430  9.133840  5.925400  2.952460
68   1  0.7418  9.143480  6.071350  9.038820
69   1  0.6870  9.007510  5.217500 14.566300
70   1  0.7525  9.294400 11.627500  2.753740
71   1  0.7027  8.803770 11.947500  9.161040
72   1  0.8940  9.657320 11.636500 15.062900
73   1  0.8001 15.065800 18.289400  2.448540
74   1  0.7967 15.261500 18.268500  8.898480
75   1  0.7363 15.332100  0.555561 14.570200
76   1  0.8457 15.658400  5.439270  2.562950
77   1  0.7555 15.824300  5.931740  8.771830
78   1  0.9110 15.099100  6.063190 14.946500
79   1  0.8395 15.123200 12.153600  2.799770
80   1  0.7888 15.217800 12.498400  8.584860
81   1  0.7103 15.084800 11.832400 14.996300
82   1  0.7938  3.483900  3.284630 18.222700
83   1  0.7776  3.191050  3.479210  5.552510
84   1  0.8000  3.054790  2.600540 12.200500
85   1  0.7927  3.596620  9.060250 17.906800
86   1  0.8857  3.442600  9.142600  5.691230
87   1  0.7832  2.960310  9.030130 12.113600
88   1  0.7464  3.018390 14.909800 17.770300
89   1  0.7935  3.277170 14.639300  6.229030
90   1  0.8364  2.935870 15.013300 11.842700
91   1  0.6978  9.145120  2.075270 17.700400
92   1  0.7722  8.861360  2.625620  5.591390
93   1  0.8096  9.294660  2.690790 11.849600
94   1  0.7392  9.454560  8.732450  0.440573
95   1  0.8611  9.482700  9.070090  5.654750
96   1  0.6561  9.032390  9.103020 11.519100
97   1  0.7976  8.957450 14.266500 17.832200
98   1  0.7780  8.651550 14.945700  6.308960
99   1  0.7635  8.887780 15.134600 12.188600
100  1  0.8478 15.538700  2.563300 17.683100
101  1  0.6752 15.621200  2.891130  6.022400
102  1  0.7964 15.518800  3.017820 12.045500
103  1  0.7796 14.967800  8.589220 18.158700
104  1  0.8808 15.024600  8.854330  5.637030
105  1  0.7913 15.320400  9.199870 11.602400
106  1  0.7017 14.972400 14.724600 17.681600
107  1  0.6911 15.099900 14.992900  5.710730
108  1  0.8021 15.634700 15.182900 12.366700
109  2 -0.6843  2.835580 -0.418145 18.306100
110  2 -0.7369  2.924970 17.664400  5.445550
111  2 -0.7998  2.985510  0.027686 11.925000
112  2 -0.7390  3.311950  6.017030 18.031800
113  2 -0.7857  3.213480  6.439940  5.661660
114  2 -0.7262  3.092540  6.015050 11.925400
115  2 -0.8536  3.345040 11.682100 17.617800
116  2 -0.7947  3.202880 11.799200  5.321970
117  2 -0.7110  2.850530 11.892800 11.834900
118  2 -0.8262  8.936620 17.492200 18.037400
119  2 -0.7405  9.143510 17.558600  6.140010
120  2 -0.8731  8.817950 18.361500 11.795700
121  2 -0.8196  9.552480  5.063600  0.148725
122  2 -0.7610  9.012560  5.753590  5.751460
123  2 -0.8317  9.176150  5.226730 11.762500
124  2 -0.7599  8.959160 11.525900 18.009500
125  2 -0.7598  9.680660 11.612100  5.606820
126  2 -0.8305  9.126130 12.061400 11.980700
127  2 -0.7739 15.316000 17.966200 17.801600
128  2 -0.7270 14.998900 18.391100  5.264950
129  2 -0.8457 15.525000  0.020250 12.011800
130  2 -0.7019 15.543000  5.610760 17.934000
131  2 -0.7453 15.227100  5.807670  5.843080
132  2 -0.7644 15.625600  5.852470 12.146800
133  2 -0.8282 15.472900 12.055600 18.337100
134  2 -0.8373 15.257500 11.632200  5.917120
135  2 -0.7272 15.056800 12.182100 11.242000
136  2 -0.8174  2.951880  2.491860  2.818670
137  2 -0.7001  3.204050  3.371600  8.792070
138  2 -0.6813  3.613930  3.493570 15.305900
139  2 -0.7470  3.589080  9.004870  2.971610
140  2 -0.7625  3.084170  9.043150  8.797510
141  2 -0.7792  3.074420  9.002220 15.123400
142  2 -0.7598  3.292160 14.519500  3.475570
143  2 -0.8506  2.846270 15.469700  8.896030
144  2 -0.7869  3.099430 14.897400 15.020700
145  2 -0.7698  9.164950  2.441200  3.105800
146  2 -0.7944  8.877920  2.712050  8.671600
147  2 -0.9062  9.259450  2.637260 14.790000
148  2 -0.9135  9.181050  8.799230  3.111020
149  2 -0.9492  8.897830  9.290690  8.778080
150  2 -0.6796  9.696200  8.952900 15.416500
151  2 -0.7141  8.850870 14.554700  2.694130
152  2 -0.7765  8.563180 15.015300  9.305950
153  2 -0.8081  9.013320 14.275400 14.851000
154  2 -0.8090 15.153500  2.993180  2.333750
155  2 -0.8784 15.343100  3.004950  8.880880
156  2 -0.8076 15.462800  3.179530 15.033100
157  2 -0.6674 15.089500  8.499870  2.784380
158  2 -0.6592 15.391900  8.833990  8.753260
159  2 -0.8314 15.211000  8.872300 15.030700
160  2 -0.7362 14.963500 14.899400  3.082260
161  2 -0.7281 15.237300 15.310400  8.839620
162  2 -0.8468 14.639500 14.805200 14.690900
163  2 -0.7064  0.168408 -0.620590  2.542330
164  2 -0.7885 17.921300 -0.443987  8.932420
165  2 -0.8114  0.285621  0.562070 15.496300
166  2 -0.8248  0.271996  6.039920  3.029100
167  2 -0.7979  0.504510  6.469950  9.074660
168  2 -0.8098 17.930700  6.183680 15.143600
169  2 -0.8187 -0.089460 11.685100  2.997920
170  2 -0.8222 17.979600 11.484800  9.330030
171  2 -0.8971 -0.137110 12.291300 14.871900
172  2 -0.7054  5.802330 17.762300  2.879050
173  2 -0.7908  5.543430 18.277700  8.750940
174  2 -0.8266  5.746950 18.261800 14.806900
175  2 -0.7542  6.322690  6.278530  2.874190
176  2 -0.8771  6.453960  6.049090  8.983850
177  2 -0.7046  5.912790  5.847900 14.457700
178  2 -0.7809  5.672780 11.808800  2.631080
179  2 -0.7171  5.758780 12.977100  9.443260
180  2 -0.6832  6.531000 11.549600 14.963700
181  2 -0.6332 11.824800 18.273300  2.503310
182  2 -0.8193 12.410300 17.778500  8.911420
183  2 -0.7437 11.920300 17.636100 14.593800
184  2 -0.7617 12.649800  5.782030  2.578550
185  2 -0.7369 12.444300  5.687530  8.620800
186  2 -0.7970 12.455500  6.133240 15.231700
187  2 -0.8003 12.440600 12.010500  3.095180
188  2 -0.7564 12.221000 11.943100  9.073430
189  2 -0.8535 12.220900 11.690300 15.180800
190  2 -0.7776  0.432024  3.833310 18.056100
191  2 -0.8883  0.736265  3.007770  5.784980
192  2 -0.8802 18.248700  2.997240 11.671200
193  2 -0.7343 -0.024547  9.430260 18.602200
194  2 -0.7062 18.112300  9.110660  5.856670
195  2 -0.7136  0.063269  8.803050 12.252700
196  2 -0.7442 18.349500 15.151700 18.588200
197  2 -0.8200 18.313800 14.906100  5.702430
198  2 -0.8145 18.346100 15.063200 12.250600
199  2 -0.7871  6.185420  2.527680 17.851300
200  2 -0.8498  5.911040  3.063800  5.712730
201  2 -0.7192  5.593960  3.267970 11.722100
202  2 -0.7341  6.459490  8.370780 17.755200
203  2 -0.7418  6.160530  9.170660  5.698620
204  2 -0.7821  6.331850  8.911690 12.427900
205  2 -0.7642  6.150410 15.150300 17.731600
206  2 -0.8329  5.963940 15.281400  5.813730
207  2 -0.7987  5.753890 15.580500 11.839800
208  2 -0.6983 12.892100  2.452370 -0.306208
209  2 -0.6812 12.059800  2.117510  5.054630
210  2 -0.8229 12.517700  3.284490 12.186300
211  2 -0.8509 12.289700  9.153420 17.949100
212  2 -0.7411 12.215000  8.940710  5.891810
213  2 -0.7341 12.369300  8.778490 11.495600
214  2 -0.7625 11.884600 14.656500 18.016600
215  2 -0.7560 11.552300 15.002200  6.132590
216  2 -0.7097 11.901700 14.828400 11.956500

