Generated by pymatgen.io.lammps.data.LammpsData

48  atoms

 2  atom types

0.000000 11.923155  xlo xhi
0.000000 11.923155  ylo yhi
0.000000 6.997800  zlo zhi

Masses

1  106.42
2   78.96

Atoms

1   1  0.362323  1.218890 0.000000
2   1 11.202300 10.345700 0.000000
3   1 10.345700  0.362323 3.498900
4   1  1.218890 11.202300 3.498900
5   1  5.240700  7.180470 0.000000
6   1  6.323900  4.384130 0.000000
7   1  7.180470  6.323900 3.498900
8   1  4.384130  5.240700 3.498900
9   1  2.545750  4.035490 0.000000
10  1  9.018850  7.529110 0.000000
11  1  7.529110  2.545750 3.498900
12  1  4.035490  9.018850 3.498900
13  1  3.057280  9.997070 0.000000
14  1  8.507320  1.567530 0.000000
15  1  9.997070  8.507320 3.498900
16  1  1.567530  3.057280 3.498900
17  1  1.188070  7.149640 1.749450
18  1 10.376500  4.414960 5.248350
19  1 10.376500  4.414960 1.749450
20  1  1.188070  7.149640 5.248350
21  1  4.414960  1.188070 5.248350
22  1  7.149640 10.376500 1.749450
23  1  7.149640 10.376500 5.248350
24  1  4.414960  1.188070 1.749450
25  2  1.900840  1.193140 1.886870
26  2  9.663760 10.371500 5.110930
27  2  9.663760 10.371500 1.886870
28  2  1.900840  1.193140 5.110930
29  2 10.371500  1.900840 5.385770
30  2  1.193140  9.663760 1.612030
31  2  1.193140  9.663760 5.385770
32  2 10.371500  1.900840 1.612030
33  2  3.702180  7.154720 5.110930
34  2  7.862420  4.409880 1.886870
35  2  7.862420  4.409880 5.110930
36  2  3.702180  7.154720 1.886870
37  2  7.154720  7.862420 1.612030
38  2  4.409880  3.702180 5.385770
39  2  4.409880  3.702180 1.612030
40  2  7.154720  7.862420 5.385770
41  2  6.998930  1.037350 1.749450
42  2  4.565670 10.527200 5.248350
43  2  4.565670 10.527200 1.749450
44  2  6.998930  1.037350 5.248350
45  2 10.527200  6.998930 5.248350
46  2  1.037350  4.565670 1.749450
47  2  1.037350  4.565670 5.248350
48  2 10.527200  6.998930 1.749450

