Generated by pymatgen.io.lammps.data.LammpsData

48  atoms

 2  atom types

0.000000 11.977544  xlo xhi
0.000000 11.977544  ylo yhi
0.000000 6.997800  zlo zhi

Masses

1  106.42
2   78.96

Atoms

1   1  0.457836  1.222170 0.000000
2   1 11.106800 10.342400 0.000000
3   1 10.342400  0.457836 3.498900
4   1  1.222170 11.106800 3.498900
5   1  5.117990  7.210940 0.000000
6   1  6.446610  4.353660 0.000000
7   1  7.210940  6.446610 3.498900
8   1  4.353660  5.117990 3.498900
9   1  2.376570  4.258460 0.000000
10  1  9.188030  7.306140 0.000000
11  1  7.306140  2.376570 3.498900
12  1  4.258460  9.188030 3.498900
13  1  3.199260 10.247200 0.000000
14  1  8.365340  1.317370 0.000000
15  1 10.247200  8.365340 3.498900
16  1  1.317370  3.199260 3.498900
17  1  1.143950  7.132720 1.749450
18  1 10.420600  4.431880 5.248350
19  1 10.420600  4.431880 1.749450
20  1  1.143950  7.132720 5.248350
21  1  4.431880  1.143950 5.248350
22  1  7.132720 10.420600 1.749450
23  1  7.132720 10.420600 5.248350
24  1  4.431880  1.143950 1.749450
25  2  1.931400  1.156680 1.984180
26  2  9.633200 10.407900 5.013620
27  2  9.633200 10.407900 1.984180
28  2  1.931400  1.156680 5.013620
29  2 10.407900  1.931400 5.483080
30  2  1.156680  9.633200 1.514720
31  2  1.156680  9.633200 5.483080
32  2 10.407900  1.931400 1.514720
33  2  3.644430  7.145460 5.013620
34  2  7.920170  4.419140 1.984180
35  2  7.920170  4.419140 5.013620
36  2  3.644430  7.145460 1.984180
37  2  7.145460  7.920170 1.514720
38  2  4.419140  3.644430 5.483080
39  2  4.419140  3.644430 1.514720
40  2  7.145460  7.920170 5.483080
41  2  6.890000  0.901224 1.749450
42  2  4.674600 10.663400 5.248350
43  2  4.674600 10.663400 1.749450
44  2  6.890000  0.901224 5.248350
45  2 10.663400  6.890000 5.248350
46  2  0.901224  4.674600 1.749450
47  2  0.901224  4.674600 5.248350
48  2 10.663400  6.890000 1.749450

