Generated by pymatgen.io.lammps.data.LammpsData

360  atoms

  2  atom types

0.000000 16.677463  xlo xhi
0.000000 21.699897  ylo yhi
0.000000 28.493178  zlo zhi

Masses

1  208.9804
2   78.9600

Atoms

1    1  0.8011 15.289300 14.711500 21.147000
2    1  0.7972  3.333880 20.368300 24.795900
3    1  0.7999  2.073680  5.629040 20.598700
4    1  0.6607  5.733010 14.573600 12.277900
5    1  0.8046  7.703200  7.808200  1.364370
6    1  0.7993 10.998600 12.729100 23.333200
7    1  0.8550 10.863200  1.321460 22.017900
8    1  0.8182  2.220280  3.120500 27.906100
9    1  0.8696  9.087190  3.925320 18.357200
10   1  0.7643  7.141050  7.354650 15.079000
11   1  0.7877  8.648990 11.329500 26.274300
12   1  0.9258  1.175000 19.968900  1.157300
13   1  0.7702  7.645310  4.917220 25.547600
14   1  0.7235  1.789320  1.371450 23.423500
15   1  0.7558  4.733340  1.316360 19.030400
16   1  0.7930 13.421000  3.090340 19.128800
17   1  0.8588 13.233600 10.054600 22.189900
18   1  0.9116  4.826630  1.106130 26.998100
19   1  0.7714  5.169390 15.295600 17.181500
20   1  0.7930  7.923410 21.410300 21.118100
21   1  0.8193 16.065100  5.705840  1.618480
22   1  0.7126 10.743300  7.767080 23.917500
23   1  0.7341 11.069100 16.474200 22.077200
24   1  0.7832  1.271210  5.674700  6.080600
25   1  0.7334 16.457700 13.009200 24.051600
26   1  0.6938  6.911590 18.703100 24.072900
27   1  0.7920  3.689480 10.075300 23.980400
28   1  0.8269 15.507400  8.384940 26.338600
29   1  0.7058 16.629400 16.549800 24.255800
30   1  0.8158  7.206700 18.458500 28.061700
31   1  0.8583  1.801670 18.578200 21.663700
32   1  0.8078  5.672650  7.708720 21.634400
33   1  0.8389  7.610640 12.049800 21.868200
34   1  0.8224  4.807590  9.630500 27.863600
35   1  0.7963  9.845490 16.106400  0.634705
36   1  0.6630 14.445600 20.377900 22.724900
37   1  0.7968  7.764070  0.121873 25.886400
38   1  0.7368  9.150570  4.301090 28.266300
39   1  0.8303 12.676600  6.728270 27.783600
40   1  0.7181  9.988290  5.326710 21.744500
41   1  0.7343 12.710600 11.894400 26.503000
42   1  0.8362 13.315200 15.893200 26.983000
43   1  0.6791  9.322690 15.949300 24.875100
44   1  0.8604 14.161000  2.653840 25.744000
45   1  0.7807 15.754000 21.045400 26.097900
46   1  0.8378 14.503400  6.352500 22.746800
47   1  0.8006  4.934020 21.642100  2.757310
48   1  0.8674  2.187220  6.165610 25.837400
49   1  0.7631  2.905780 13.821800  5.479220
50   1  0.6689  6.028280 21.629100  6.624350
51   1  0.6451  2.430930  8.064350  3.537240
52   1  0.7656  1.347470 13.468200 28.049300
53   1  0.8186  4.734640 17.049500  5.675240
54   1  0.7103 10.748700 16.688900  4.555080
55   1  0.6818  7.708270  2.704540  4.801620
56   1  0.5845  3.384490  4.400880  8.736100
57   1  0.6433  4.274860  5.685010  2.108320
58   1  0.6342  1.655700 11.741300  3.161380
59   1  0.7244 15.432600 11.010100  1.227420
60   1  0.7406 15.733600 19.643800  4.982080
61   1  0.9262 11.642300 19.647400  0.010922
62   1  0.6922  6.789290  5.596010  5.334990
63   1  0.7807 10.710700  2.659940 25.282200
64   1  0.8421 16.281200 16.568600  3.611630
65   1  0.8421  2.037520  2.863890  3.516210
66   1  0.8998  4.142360 18.287400 14.007500
67   1  0.6716 11.155100 18.917100 24.533000
68   1  0.6830 10.277300  5.619260  3.411220
69   1  0.8429  5.514250 14.141500  2.476740
70   1  0.8344  3.621890 16.820000  1.284140
71   1  0.8243  7.159030  0.229091 11.468600
72   1  0.8149 13.025600  8.577670  3.028220
73   1  0.7993  2.406290 19.082400  7.912870
74   1  0.8390 11.429200  1.787940 13.676000
75   1  0.6312 13.214600  6.515310  9.766600
76   1  0.7121 15.455900 11.223400 18.456200
77   1  0.7207  6.602820 15.932900  8.729790
78   1  0.7152 14.174800 15.172800  7.209220
79   1  0.7961  7.617410 19.194400  4.298400
80   1  0.8605 15.180300  9.087100  7.020290
81   1  0.8675 10.268500  9.248060  6.226330
82   1  0.7702  2.017630 14.421100 10.526100
83   1  0.7965  6.948680  3.527970 14.369100
84   1  0.9898 14.107100  1.013570  1.040220
85   1  0.8368 15.748600 11.860000 13.197300
86   1  0.7098 10.514300  1.035130  5.894680
87   1  0.7195 11.588200  5.384200  7.212350
88   1  0.8691 13.004300 10.879200 10.330800
89   1  0.8184 13.427400 14.159300  4.059740
90   1  0.6859 13.251600 20.722600  7.000720
91   1  0.6140  9.738360 18.519200  7.568420
92   1  0.8951  8.665440  0.991311  1.383510
93   1  0.8757  9.795720 11.809900  2.117500
94   1  0.7289 16.537000 12.998700  7.861900
95   1  0.6718  5.111790 19.713600  9.516080
96   1  0.7424 14.489900 15.767500 10.530500
97   1  0.7782 12.944900 21.328900 10.918500
98   1  0.7597 15.827300  2.223230  8.382860
99   1  0.7389 16.101400  7.810080 13.898500
100  1  0.6811 12.267700  6.573020 13.228000
101  1  0.7078  1.753780 12.876200 17.249200
102  1  0.7628  5.463340  0.287102 14.920400
103  1  0.7447  3.602280  1.506010 11.381700
104  1  0.7762 14.709900  4.340780  5.507120
105  1  0.7004  0.477461  5.001620 10.528400
106  1  0.8801  2.978810  8.132060 16.528600
107  1  0.7804  7.943610 15.133200 19.837100
108  1  0.8588 12.322500 13.225500 13.498500
109  1  0.7986  2.879920  0.672029  6.446480
110  1  0.8853  4.164000  7.698320  8.138060
111  1  0.8335  5.426840  8.285970 11.601000
112  1  0.6128 10.735700 16.034800  9.165070
113  1  0.8144  8.621680 17.858600 12.543700
114  1  0.7787 12.468100 19.549600 19.971100
115  1  0.7962 14.034000  3.603970 15.066500
116  1  0.8283  1.248250  8.846640 10.747800
117  1  0.6624  9.929430 21.647500  9.355130
118  1  0.7897  7.751980 12.286600 12.753900
119  1  0.6275 10.210300  5.694490 15.625200
120  1  0.7911  9.336850  8.047500 11.695900
121  1  0.8608 15.559600 17.556000 18.467800
122  1  0.7711  3.645080 12.693500 13.980300
123  1  0.8066 16.010200  6.518710 18.348300
124  1  0.8183 14.802200 14.125800 16.242500
125  1  0.6611  3.178610 11.547700 19.707600
126  1  0.8217  7.718680 19.362900 15.747000
127  1  0.7821 10.713200 20.853600 16.541800
128  1  0.7207  4.415090  4.793880 12.865900
129  1  0.7286  0.986320  9.447390 22.140600
130  1  0.8406  5.676510 15.551700 22.431500
131  1  0.8633  5.415100 13.763200 26.704500
132  1  0.7189 10.571800 16.206100 17.284800
133  1  0.7313  0.936376 21.398400 19.756600
134  1  0.9557  8.273850  3.634950 10.482700
135  1  0.6598 13.696400  9.031560 15.894500
136  1  0.8510  6.291600 10.527500 16.596300
137  1  0.7555  8.791430 15.532100 15.261400
138  1  0.6511 12.251200  9.565480 18.941600
139  1  0.8354  5.401190 18.573300 20.033800
140  1  0.8323  4.748300  3.288350 22.139200
141  1  0.7254 15.910600  3.019500 22.474500
142  1  0.6933  8.980820  8.649440 19.203400
143  1  0.7900 11.088300 13.048100 18.094100
144  1  0.8033 12.384900  3.696400 10.174000
145  2 -0.5987  6.478960 16.261100 25.059600
146  2 -0.5721  2.135840 16.985600  5.089650
147  2 -0.6036 12.132800  0.092912 23.715100
148  2 -0.5207 15.926800 10.629400 25.187100
149  2 -0.6151  5.779830 21.439000 23.592400
150  2 -0.5637  4.284150 12.290000  0.346722
151  2 -0.4648  3.926950 19.786400  0.969271
152  2 -0.4284  5.253560  2.792390 24.639000
153  2 -0.6062 16.008200 14.471500  5.573980
154  2 -0.4341 15.919400 16.046300 26.952000
155  2 -0.5786  6.413520 15.535300  0.267977
156  2 -0.6572  9.308170 19.855500 27.409500
157  2 -0.7194  7.841060  5.707670 12.883800
158  2 -0.5477 10.220600 10.441600 28.181700
159  2 -0.6194 12.686000  3.198690 23.449900
160  2 -0.1155  9.213410 11.951400  5.808260
161  2 -0.6642 12.095900 14.507300 24.793500
162  2 -0.7084 14.549900  8.095600  0.915968
163  2 -0.5700  9.989200 19.492900 21.774300
164  2 -0.7136  7.323760  5.370700  2.133980
165  2 -0.5547 14.104500 13.622700 19.000200
166  2 -0.4607  2.654210 12.976500 25.417700
167  2 -0.5319 13.507600  0.288230 27.251300
168  2 -0.7302  0.859324  2.949120  6.324520
169  2 -0.4198 12.699000 17.082700  1.215510
170  2 -0.4131 15.843600  2.819440  3.050340
171  2 -0.5291  3.330470 12.412700 22.308300
172  2 -0.3849 15.207500 19.297000  2.040070
173  2 -0.5426  6.694050  2.553230  2.294920
174  2 -0.6078 13.487200 17.077700 22.753700
175  2 -0.6625  1.676030  5.813600  0.040647
176  2 -0.5266  1.198090 15.536700 22.063700
177  2 -0.4081  4.795420  5.311780 26.913000
178  2 -0.5155  5.350630  8.996400  2.053950
179  2 -0.5408  5.246950 19.039600 26.271100
180  2 -0.6298  3.575960  1.596970  0.594374
181  2 -0.4843  8.481470  7.545900 26.928100
182  2 -0.5438 15.598000  7.974960  4.546070
183  2 -0.5866  6.106700 11.677500 24.817000
184  2 -0.4872 15.286700 14.450900  2.147880
185  2 -0.4601  5.697600 14.531400  5.228820
186  2 -0.6588  4.038780  5.773360  6.206040
187  2 -0.5649  6.478940 21.399800  0.255832
188  2 -0.4119  1.146990 18.876500 26.278100
189  2 -0.4955 10.396500  3.166570  2.449150
190  2 -0.6403 10.936000  5.588820 25.488800
191  2 -0.5426 10.411700  0.221481 19.654000
192  2 -0.3971  0.947500 17.248600  0.832805
193  2 -0.1956 14.708600 17.205100 15.524400
194  2 -0.5397  7.353830  5.045010 22.842500
195  2 -0.5516  8.111100  6.112890 19.981000
196  2 -0.6014  3.166360  7.653630 23.021500
197  2 -0.4882  0.778939 21.482500  3.106160
198  2 -0.4884  9.030450 12.941100 15.508600
199  2 -0.5575 16.366700  0.177830  0.068722
200  2 -0.5026  2.850480  4.161180 23.894400
201  2 -0.1197  3.955900  4.947840 16.680600
202  2 -0.3156  4.824550  5.207960 19.605900
203  2 -0.7383  8.250810 14.508400 22.827500
204  2 -0.3051  2.852090 16.034200 26.923700
205  2 -0.4868  7.255390  2.438980 20.307000
206  2 -0.7304  9.007840  1.305090 23.867300
207  2 -0.4554  7.420510  1.809400 17.106700
208  2  0.0576 16.558100 19.632100 12.692500
209  2 -0.3951  5.765680  7.969340 25.326000
210  2 -0.5836  9.194200 13.833800 26.966400
211  2 -0.5542  3.859580 17.970200 22.967200
212  2 -0.6714  2.395220  0.749653 26.281400
213  2 -0.7165 11.818000  7.544160 21.461900
214  2 -0.4886  4.729680 19.299700 16.254200
215  2 -0.6218  7.282720  2.498900 27.060600
216  2 -0.6886 16.498500  2.997910 25.026200
217  2 -0.5432  0.032434 14.988700 18.606100
218  2 -0.4809 12.019100 13.932800  6.578440
219  2 -0.3519  4.408470 11.713100  4.049140
220  2 -0.6279 14.980500  5.370700 12.456600
221  2 -0.2536  0.399536 16.627500 11.259000
222  2 -0.7655  8.227320 18.240800  9.774280
223  2 -0.3022  2.231770 10.638300  7.048620
224  2 -0.7758 12.274900 19.094800  8.711550
225  2 -0.4124  6.032240  3.350060  7.398080
226  2 -0.5295  4.566450 12.155100 11.411600
227  2 -0.5850  4.365600  7.560140 13.875900
228  2 -0.5573  9.966060 18.363800 14.895200
229  2 -0.5529  0.474082 20.721000  7.431060
230  2 -0.2934  7.494210 13.299400  9.428090
231  2 -0.7304 15.165000  5.406190  8.077650
232  2  0.1356  6.245690 11.987300  6.291190
233  2 -0.4501  8.899220 15.573900  6.056870
234  2 -0.6458 12.614300  7.743980  6.079590
235  2 -0.6176 12.690800 13.563200 10.724400
236  2 -0.3252 12.587100 18.530400 16.963600
237  2 -0.4218 13.731500 21.679300  4.518260
238  2 -0.7616 16.247500 11.995800 16.031400
239  2 -0.6090  4.346070  2.553860  4.934210
240  2 -0.6527  7.612660  0.763130  8.819740
241  2 -0.6454  4.022940 17.025000  8.335060
242  2 -0.4266  3.541690  9.750210  9.584330
243  2 -0.4488 13.304000  5.575810  2.523050
244  2 -0.5089 11.181700  8.812890  9.514100
245  2 -0.4122 13.672500 11.334300  7.400000
246  2 -0.3606  7.238650 11.824000  0.646722
247  2 -0.5835 10.846300 19.522800  5.024950
248  2 -0.6680  1.180820  7.370950  8.251660
249  2 -0.3372 10.626700 11.236700 12.173000
250  2 -0.1297  9.768610 13.280700  8.793170
251  2 -0.5820  9.251640  6.576130  7.085710
252  2 -0.5521  9.071230 18.413300  2.055940
253  2 -0.4528 10.981100 19.798700 11.996800
254  2 -0.6362  5.639850 17.957300  3.089080
255  2 -0.4786  0.540995  2.126310 10.808900
256  2 -0.5111  9.747110  2.897590  7.989500
257  2 -0.3376  7.196980  9.745620 10.509100
258  2 -0.5131  1.592350 15.018200  7.738570
259  2  0.0308 15.891000 20.237500 14.615500
260  2 -0.7390  6.256150  2.737610 11.501200
261  2 -0.5561  9.179650  8.913420  3.833560
262  2 -0.4318 16.006500 11.491300  5.187860
263  2 -0.7186 13.213300  2.036870  8.376520
264  2 -0.6154 11.964700  3.429220  5.700940
265  2 -0.1017  4.673370 11.836100  7.342790
266  2 -0.4457 15.503500 14.476500 13.637800
267  2 -0.5067  2.745320  9.026940 26.391800
268  2 -0.1718  6.445800  8.743080  5.091940
269  2 -0.7049  2.599420 14.503500  2.499910
270  2 -0.4750  8.723550 13.956000  2.654530
271  2 -0.7268 10.845000 17.258400 26.722100
272  2 -0.7779  4.020800  0.466966  8.572710
273  2 -0.5865 10.721600  7.443690  0.998288
274  2 -0.8178  1.607900  5.293000  3.566280
275  2 -0.1999 15.607600 19.989600 10.243300
276  2 -0.6849 13.753400 16.695800  5.119680
277  2 -0.4870 10.037100  1.202930 27.549300
278  2 -0.7913  6.494560 18.678700  6.907900
279  2 -0.3982 12.206300  3.615990 27.961700
280  2 -0.4943 11.856000 13.548400  1.017340
281  2 -0.6142  1.027500  9.970950 13.078600
282  2 -0.2409  4.121070  9.213480  5.831230
283  2 -0.5582 13.616800 19.325400 25.918900
284  2 -0.6087  3.096030 20.304200  4.806840
285  2 -0.4495 15.084000  3.326780 28.176500
286  2 -0.5190 13.205000 11.042000  3.824460
287  2 -0.7500  8.252980 21.694000  4.434170
288  2 -0.5373  1.268780  9.775030  0.543345
289  2 -0.5791 15.285700 12.478700 27.524400
290  2 -0.5943 11.796800 15.271600 15.023200
291  2 -0.7059  5.756800 13.267300 15.296300
292  2 -0.3890  1.592080 14.198100 13.564300
293  2 -0.5226  9.356260 11.168100 19.751400
294  2 -0.6052  3.836280 21.005300 20.985100
295  2 -0.6670 15.813100 18.298700 20.881800
296  2 -0.6865  0.134537  8.475050 16.340400
297  2 -0.7224  3.743710 11.086300 16.833100
298  2 -0.5441 12.484800 11.662500 20.279300
299  2 -0.4374  2.323560 18.658300 19.036800
300  2 -0.5627 13.753000 12.370000 23.436100
301  2 -0.7280  7.313670 17.602500 21.475100
302  2 -0.5263  7.166300  5.029900 16.852400
303  2 -0.6286 12.956600  9.384930 24.864900
304  2 -0.4658  4.066020 15.471000 20.088600
305  2 -0.3773  9.033300  9.816620 16.003100
306  2 -0.6213 13.742600  1.427150 21.138100
307  2 -0.8552  0.616287 20.941400 22.581800
308  2 -0.7058  2.240330  2.550570 20.889600
309  2 -0.5280 14.039300  5.769930 25.441800
310  2 -0.5818  5.676000  9.935330 20.445600
311  2 -0.4135  9.973920 18.724300 18.516500
312  2  0.0029 12.236400 17.481400 13.989100
313  2 -0.3803 14.967900 20.689400 18.307300
314  2 -0.0060 15.809300  0.957806 13.063800
315  2 -0.3829 14.340900  1.529800 16.812000
316  2 -0.5947  6.843680  9.614510 13.896500
317  2 -0.5915  3.881330 16.094000 12.296300
318  2 -0.5461  6.776790 12.849200 19.045100
319  2  0.0412  0.108337 17.372400 14.288900
320  2 -0.2255  2.613290 21.209800 16.504800
321  2 -0.7208  7.568120 16.642000 17.595600
322  2 -0.4416  5.474360  7.670110 17.490900
323  2 -0.7409  6.623610 16.838500 14.081900
324  2 -0.0702 14.210400 18.401300 12.675800
325  2 -0.4141 15.830300 17.369300  8.298010
326  2 -0.5602  3.692600 20.657600 11.996900
327  2 -0.6402 11.358700  4.871510 19.178000
328  2 -0.5327 12.401900 16.716800 19.767500
329  2 -0.6117 14.624800  8.386310 20.365400
330  2 -0.6254 12.727200 11.767900 16.051100
331  2 -0.5756 10.326300 14.139400 20.449600
332  2 -0.5927 10.935700  2.782000 16.532700
333  2 -0.5947 10.523500  5.141100 11.002300
334  2 -0.7108 13.540700  6.109330 16.491300
335  2 -0.0549  0.828929  3.264140 14.810700
336  2 -0.6492  8.116310  1.548820 13.532900
337  2 -0.5045  6.987290 20.374800 18.331600
338  2 -0.0078  1.073200  0.359987 15.256400
339  2 -0.7166 11.706700  4.140370 13.367600
340  2 -0.6144 16.019800 11.444800 20.988900
341  2 -0.7617  6.790550 20.306400 13.327000
342  2 -0.5670  4.118300  2.399180 14.309200
343  2 -0.3462  1.193410  4.887670 17.500400
344  2 -0.7058  2.816770  6.492940 11.183000
345  2 -0.5912 16.578000  7.374720 24.058600
346  2 -0.6851 15.887400 12.964000 10.636900
347  2 -0.6838  9.237990 10.508700 23.108500
348  2 -0.2900  1.601870  5.204270 13.620700
349  2 -0.5658  9.356560 14.953600 12.217800
350  2 -0.5025  6.340970  6.715020  9.625960
351  2 -0.5932 10.819600  8.351640 14.544800
352  2 -0.6737 14.772500  8.738360  9.937000
353  2 -0.3458  2.714360 16.149500 16.074900
354  2 -0.3134 12.797300 21.044300 14.472000
355  2 -0.3626 11.434500 21.327100  1.881500
356  2 -0.6853 10.933400  1.814920 11.167600
357  2 -0.6652  1.955070  8.127710 19.903900
358  2 -0.6192 13.563600 10.059000 13.205500
359  2 -0.7008 15.690800  5.017770 20.653200
360  2 -0.3952 14.410800  2.284590 11.656100

