Generated by pymatgen.io.lammps.data.LammpsData

504  atoms

  2  atom types

0.000000 17.774667  xlo xhi
0.000000 21.986255  ylo yhi
0.000000 41.650458  zlo zhi

Masses

1  208.9804
2   78.9600

Atoms

1    1  0.8648 -0.166467 14.750200 11.947200
2    1  0.7871  1.869520 18.409700 11.865200
3    1  0.8760 17.419500  7.501620 12.046400
4    1  0.8744  2.325310 11.509600 11.832800
5    1  0.7654  4.308100 14.993600 11.291100
6    1  0.8137  6.359380 18.417500 12.054300
7    1  0.7987 17.643400 22.198600 12.036800
8    1  0.8156  2.373190  3.872030 12.010300
9    1  0.8603  3.970410  7.497040 11.807300
10   1  0.8591  6.287980 10.697400 12.188300
11   1  0.9027  8.878220 14.668500 12.101800
12   1  0.8103 10.484300 18.586800 12.397800
13   1  0.8576  4.597140 22.448700 11.885500
14   1  0.7936  6.648420  3.478320 11.934600
15   1  0.8794  8.556440  7.463210 12.110100
16   1  0.8166 11.263000 11.453900 11.862400
17   1  0.8768 13.061800 14.943800 12.006400
18   1  0.9225 15.648000 18.499700 12.377100
19   1  0.8797  8.952950 22.168800 11.853200
20   1  0.8309 10.944500  3.757130 12.261500
21   1  0.8635 13.100900  7.332280 12.144800
22   1  0.8619 15.542800 11.102200 12.171600
23   1  0.8666 13.180900  0.429800 12.297100
24   1  0.8154 15.288800  3.909980 11.942800
25   1  0.8434  1.970620 13.401900  1.159390
26   1  0.7884  4.150150 17.133100  1.677980
27   1  0.8272  2.116260  6.270790  1.323540
28   1  0.8627  3.760850  9.879210  1.314780
29   1  0.8312  5.937880 13.242200  0.956517
30   1  0.8655  8.695180 16.816400  1.596810
31   1  0.8221  1.888160 21.033300  1.881030
32   1  0.8112  4.154590  2.024010  1.951350
33   1  0.8415  5.967530  6.311400  1.576140
34   1  0.8529  8.442520 10.032900  1.505510
35   1  0.7662 10.815500 13.186200  2.212950
36   1  0.8080 12.509800 17.206700  1.557020
37   1  0.7789  6.600650 20.702400  2.003610
38   1  0.8432  8.581010  2.928490  1.249100
39   1  0.8729 10.562500  6.238950  0.983356
40   1  0.8240 13.064700  9.440500  1.350250
41   1  0.8104 15.172900 13.345000  1.595070
42   1  0.8424 17.021600 17.495300  1.634550
43   1  0.8042 10.644900 21.121800  2.060330
44   1  0.8317 12.906800  2.386100  1.788920
45   1  0.8097 14.812700  6.094930  1.968860
46   1  0.8680 17.453800  9.615930  1.613470
47   1  0.8357 15.519600 21.041300  1.888330
48   1  0.7894 -0.415416  2.513840  2.317360
49   1  0.3264  0.764270 15.125500  4.989250
50   1  0.1644  3.833650 16.102700  6.091050
51   1  0.2207 -0.147033  8.932160  7.113270
52   1  0.2369  3.075350  9.878850  7.489780
53   1  0.1817  6.357190 14.480600  6.766160
54   1  0.1821  8.418220 19.327500  6.055920
55   1  0.3073  0.328237 20.550100  8.048540
56   1  0.2521  0.693253  3.716600  7.451090
57   1  0.1843  5.001900  7.966500  6.450740
58   1  0.1554  8.147440  9.214240  6.566240
59   1  0.1460  9.065310 16.400200  6.929680
60   1  0.1513 11.390400 18.076900  6.034030
61   1  0.3320  5.589520  1.166480  5.361160
62   1  0.1765  7.408000  3.240060  7.003740
63   1  0.1904 10.233700  6.964930  6.713760
64   1  0.1464 10.926700 10.962300  6.051080
65   1  0.1743 13.550400 15.800200  7.060530
66   1  0.1640 16.669100 16.610600  6.917800
67   1  0.1558  8.498140 22.057400  6.956640
68   1  0.2431 13.698000  1.870850  7.766540
69   1  0.1628 13.207200  8.642940  6.716280
70   1  0.1888 15.411600 10.736200  6.703490
71   1  0.2001 14.612800 21.165300  8.087820
72   1  0.1955 16.466800  0.902031  6.653060
73   1  0.1815  3.609160 13.062300  7.133520
74   1  0.1726  6.047990 17.562300  7.014010
75   1  0.2332  2.390820  6.719140  7.182110
76   1  0.1867  5.714330 11.155000  6.735420
77   1  0.3597  9.001690 13.996600  5.082680
78   1  0.2644 10.353400 19.651200  8.513870
79   1  0.2713  3.032140 19.805800  5.966220
80   1  0.2834  4.499860  3.658070  7.593850
81   1  0.2345  7.439130  5.978120  5.767570
82   1  0.1998  8.476470 11.760000  7.652530
83   1  0.1429 10.992400 13.719200  7.286760
84   1  0.2162 12.976100 18.538100  8.388720
85   1  0.1768  5.823770 20.639700  7.119040
86   1  0.2480 10.043100  4.146160  6.621470
87   1  0.2599 12.618500  5.307140  7.551000
88   1  0.2814 13.129300 11.305900  8.170650
89   1  0.2177 16.077000 13.754900  7.513460
90   1  0.1625  1.582650 17.550300  7.104830
91   1  0.1244 12.361700 21.098500  6.518800
92   1  0.1415 15.420300  3.712000  6.737920
93   1  0.1569 15.323800  6.757350  7.154450
94   1  0.1781  0.695054 11.984000  6.900030
95   1  0.1873 14.213000 18.640000  5.945730
96   1  0.2883 -0.048787  6.008090  5.679480
97   1  0.8126  1.657390 13.530200 26.187800
98   1  0.8003  3.860360 17.043100 26.353200
99   1  0.8268  1.910610  6.441390 25.751300
100  1  0.8820  4.120220 10.229600 25.884800
101  1  0.9045  6.189580 13.372000 26.208100
102  1  0.8718  8.201170 17.303300 26.411900
103  1  0.8297  1.544690 20.327400 25.933200
104  1  0.8549  3.779480  2.772910 26.350700
105  1  0.8434  5.939840  6.078980 26.167000
106  1  0.8517  8.311960 10.398200 26.751900
107  1  0.8723 10.520300 13.981500 26.155200
108  1  0.7850 12.935400 17.442400 26.180300
109  1  0.8455  5.599300 20.847100 25.754300
110  1  0.7880  8.527990  2.854080 25.925900
111  1  0.7839 10.617400  6.580260 25.770700
112  1  0.7832 12.645400  9.918700 26.122500
113  1  0.7789 15.159900 13.709000 25.610500
114  1  0.8957 17.096300 17.134100 26.277900
115  1  0.8064 10.425800 21.329900 25.588600
116  1  0.8297 12.981700  2.726830 26.234700
117  1  0.9029 14.965900  6.457300 25.876700
118  1  0.8145 17.375500  9.700500 26.179700
119  1  0.8075 15.088800 20.287100 26.271700
120  1  0.8552 17.123700  2.873420 26.040600
121  1  0.8446  2.059320 16.045600 15.095400
122  1  0.8467  4.022920 19.543200 15.205700
123  1  0.8824  1.913470  8.796870 15.272200
124  1  0.8093  4.315290 12.263500 14.961200
125  1  0.8789  6.312410 16.121000 15.229900
126  1  0.8104  8.404090 19.604600 15.363000
127  1  0.8637  1.700740  1.656360 15.255100
128  1  0.8680  4.638390  4.980230 15.398100
129  1  0.7788  6.412600  8.526970 15.339600
130  1  0.8152  8.785450 12.220500 15.107000
131  1  0.8478 10.936900 16.159700 15.360900
132  1  0.8278 13.033300 19.818500 15.672100
133  1  0.8594  6.293760  1.226090 15.293900
134  1  0.8129  8.520500  4.357710 15.261900
135  1  0.7600 10.202000  8.730030 15.297900
136  1  0.8217 13.148000 12.629500 15.242200
137  1  0.8984 15.332500 15.798400 15.097700
138  1  0.8677 -0.117752 19.617600 15.851800
139  1  0.8197 11.241000  1.739470 15.309600
140  1  0.7566 12.623900  5.497740 15.749900
141  1  0.8120 15.253500  8.808610 15.229900
142  1  0.8449 -0.163065 11.986800 15.317600
143  1  0.7735 15.161600  1.358910 15.583000
144  1  0.7800 -0.143541  5.403850 15.570200
145  1  0.1823  0.739162 13.693300 19.849200
146  1  0.1688  3.651040 19.430000 21.032200
147  1  0.2519  2.470710  3.822880 19.509300
148  1  0.1658  3.192490 11.783900 21.103500
149  1  0.1915  5.783610 12.841500 20.263100
150  1  0.1926  8.025480 16.748900 19.898700
151  1  0.1600  0.287155 19.838200 21.395800
152  1  0.1753  4.758040  2.705840 20.880900
153  1  0.1978  7.017350  6.206070 20.291400
154  1  0.1666  7.932910 10.228700 20.317000
155  1  0.1636  9.027740 13.046000 20.425800
156  1  0.1741 13.135100 17.795300 20.795500
157  1  0.1572  6.846400 19.364700 20.623100
158  1  0.2088  7.877150  3.060050 20.766200
159  1  0.1598  9.988660  6.176670 20.570500
160  1  0.2271 13.793300 10.293500 20.247600
161  1  0.1521 15.641000 12.642800 20.557700
162  1  0.1771 16.070800 17.512800 20.628700
163  1  0.1886 11.985600 20.583900 21.180200
164  1  0.1686 12.726900  4.077400 20.592700
165  1  0.1317 15.646900  5.351690 20.553300
166  1  0.2063 -0.071143 10.352300 21.260700
167  1  0.1673 15.273100 20.297400 20.148800
168  1  0.1011 -0.079355  3.289260 20.896900
169  1  0.2071  1.651000 17.317200 20.535700
170  1  0.1931  5.111650 21.633500 20.099200
171  1  0.2207  2.638590  8.645930 21.440800
172  1  0.1817  3.358230 14.666300 20.507900
173  1  0.1847  5.466390 16.626300 21.117100
174  1  0.1696 10.005500 18.356200 21.211900
175  1  0.1387  2.074570  0.643342 20.723000
176  1  0.1699  4.067720  5.862020 20.995200
177  1  0.1750  5.241500  9.307970 20.729000
178  1  0.3055  8.784030 15.217200 22.423200
179  1  0.1362 11.042700 15.507400 20.524900
180  1  0.1569 13.799900  0.838123 21.095300
181  1  0.2995  7.649920  0.344604 22.041200
182  1  0.2571  8.232740  7.991350 22.057900
183  1  0.1518 10.895200  8.998880 20.993500
184  1  0.1827 12.385700 12.713700 21.137500
185  1  0.1655 13.762100 15.145100 20.816600
186  1  0.1828 16.870600  0.738972 21.820700
187  1  0.2167 10.181300  1.233260 20.625000
188  1  0.2423 13.127200  6.685690 21.433800
189  1  0.2241 15.934000  8.182930 20.358900
190  1  0.2578 16.826200 14.876500 21.902000
191  1  0.2385 15.039400  2.879790 19.028500
192  1  0.1557  0.853949  6.121540 20.667500
193  1  0.8791  1.843150 15.976200 40.037500
194  1  0.8940  4.184800 19.320300 40.232200
195  1  0.8388  1.996230  8.230840 39.935100
196  1  0.8102  3.903650 12.107100 39.685900
197  1  0.7787  6.603930 15.732600 39.840400
198  1  0.8621  8.488100 19.821500 39.767400
199  1  0.8451  1.835420  1.306880 40.155900
200  1  0.8234  4.058610  4.540020 39.956500
201  1  0.8788  6.128830  8.232780 39.842300
202  1  0.8886  8.501790 12.324800 40.066000
203  1  0.8195 10.818900 15.661900 40.150600
204  1  0.8856 12.640200 19.357100 40.410900
205  1  0.8138  6.266790  0.858357 39.982100
206  1  0.7927  8.610510  4.942070 39.731800
207  1  0.8222 10.449900  8.515570 39.962900
208  1  0.8594 12.945000 12.230500 40.261200
209  1  0.8823 15.441600 16.095400 39.707700
210  1  0.8039 17.519500 20.007400 40.073500
211  1  0.8370 10.711700  1.460790 40.004900
212  1  0.9027 13.163900  4.713640 40.035900
213  1  0.8338 14.985200  8.133730 39.582800
214  1  0.8108 17.492600 12.830100 39.700900
215  1  0.8333 15.221500  1.109170 40.223500
216  1  0.8536 17.147100  4.753380 39.802000
217  1  0.8439 17.165000 14.757700 29.349200
218  1  0.8531  1.602550 18.340100 29.409500
219  1  0.8366 17.197900  8.125310 29.383800
220  1  0.7839  1.433570 11.426100 29.512700
221  1  0.8451  3.756610 14.787100 29.555900
222  1  0.8479  5.751630 18.769800 29.079500
223  1  0.8478 17.103900 22.435800 29.552600
224  1  0.8477  1.475180  3.938930 29.108000
225  1  0.8887  3.503880  7.365950 29.459600
226  1  0.7992  5.979330 11.679700 29.764100
227  1  0.8269  8.569940 15.285100 29.920900
228  1  0.8397 10.360700 18.887100 29.241400
229  1  0.8164  3.669930  0.249983 29.421900
230  1  0.8097  5.942290  3.691210 29.127300
231  1  0.8558  7.932690  6.815580 29.459200
232  1  0.7693 10.265500 10.731400 29.785400
233  1  0.8512 12.687700 14.818300 29.271300
234  1  0.7551 14.867200 18.438500 29.261800
235  1  0.8885  8.367780  0.596485 29.072700
236  1  0.8971 10.443900  4.014360 28.653300
237  1  0.8519 12.590300  7.623060 29.164600
238  1  0.8997 14.662000 11.120500 29.044300
239  1  0.8718 12.401700  0.330410 29.383200
240  1  0.8449 14.935200  3.909950 29.148600
241  1  0.2770  1.393060 14.142800 33.782000
242  1  0.2226  4.279030 18.749800 35.238400
243  1  0.1712  2.203260  8.142170 34.299400
244  1  0.1978  4.520350 12.584100 34.871600
245  1  0.1790  6.529610 14.814300 34.408500
246  1  0.1634  8.409650 20.729800 34.574300
247  1  0.1732  3.537490 21.680100 34.093100
248  1  0.2090  4.213340  5.644770 35.284700
249  1  0.1770  7.135000  6.659680 34.428800
250  1  0.1761  9.281830 13.630300 34.993800
251  1  0.1409 11.438700 16.009300 34.735000
252  1  0.1626 13.798400 20.198500 34.465600
253  1  0.1951  6.130250  0.697741 35.133700
254  1  0.1887  9.574100  5.000550 34.327900
255  1  0.1466 10.137900  7.731640 34.106700
256  1  0.2248 12.816100 13.187100 34.198400
257  1  0.2035 14.548800 15.726400 33.762800
258  1  0.1776  0.960997 20.146900 34.463500
259  1  0.1835 11.276800  0.208774 34.849000
260  1  0.1740 12.654800  6.295120 33.951400
261  1  0.1550 15.460600  7.873980 34.438400
262  1  0.1502 16.969100 12.262300 34.958100
263  1  0.1827 16.298300 21.732400 35.047300
264  1  0.1795 -0.031888  6.040330 34.641300
265  1  0.1896 16.992600 15.139100 35.546300
266  1  0.1727  1.814750 17.086300 34.717200
267  1  0.2735 17.737600  9.219740 36.155400
268  1  0.1613  1.937200 11.170100 34.811200
269  1  0.1955  4.048790 15.620200 35.262000
270  1  0.2538  6.691980 18.171600 33.824700
271  1  0.1623  1.096100  1.355330 34.190700
272  1  0.3316  1.562020  3.583420 36.133500
273  1  0.1794  5.213800  8.701440 34.397900
274  1  0.1708  7.342040 11.475200 34.468400
275  1  0.2560  8.671760 16.457200 35.897100
276  1  0.1664 10.893200 19.141300 35.108900
277  1  0.1603  3.556810  2.678580 34.129000
278  1  0.1883  6.252920  3.473570 34.212000
279  1  0.2456  8.119420  9.019960 35.820300
280  1  0.1689 10.655300 10.812600 34.982600
281  1  0.2471 13.776200 17.539000 35.786000
282  1  0.1385 16.223200 18.389600 34.392100
283  1  0.1826  8.710290  1.801810 34.563200
284  1  0.2109 12.121100  3.364310 35.073000
285  1  0.2450 12.652600  8.306610 35.986200
286  1  0.1891 14.204400 10.952900 35.482300
287  1  0.2472 14.339900  1.789850 33.776200
288  1  0.2101 14.799500  4.610950 34.314500
289  2 -0.7613 17.141900 14.841100 41.327300
290  2 -0.6688  1.933940 18.613400 41.858600
291  2 -0.6307 17.148100  7.334830 41.797400
292  2 -0.7689  1.794830 11.154500 41.465200
293  2 -0.7885  3.942310 14.661200 41.359400
294  2 -0.6754  6.749020 18.260200 -0.445800
295  2 -0.8168 -0.417393 22.405700  0.205720
296  2 -0.6964  1.749390  3.650850  0.134988
297  2 -0.8585  4.125920  7.268240 41.107800
298  2 -0.7085  6.191680 10.922200 41.490200
299  2 -0.8069  8.330410 14.438000 -0.026907
300  2 -0.7124 10.450800 18.458200  0.256241
301  2 -0.7570  3.975010 22.023700  0.083203
302  2 -0.6970  6.192410  3.870540  0.061154
303  2 -0.7433  8.241340  7.502310 41.377600
304  2 -0.7306 10.822000 11.049600  0.164897
305  2 -0.7561 12.693100 14.383400 -0.080838
306  2 -0.6994 15.266300 18.308300 41.360200
307  2 -0.7412  8.275080 21.770300  0.151368
308  2 -0.8498 10.724800  3.844710 41.334500
309  2 -0.7904 12.990100  7.017230 41.436600
310  2 -0.6272 15.301300 10.672600 -0.287264
311  2 -0.7039 12.798600 21.874800  0.328269
312  2 -0.7435 14.969700  3.531000 41.659300
313  2 -0.6871  1.775130 16.031700  2.456960
314  2 -0.7490  4.043470 19.793900  3.162660
315  2 -0.6674  1.854120  8.467640  3.029880
316  2 -0.6383  3.706270 12.205300  2.870810
317  2 -0.6559  6.445200 15.971900  3.253290
318  2 -0.7007  8.731930 19.201900  3.031940
319  2 -0.6793  1.932510  1.460690  3.816690
320  2 -0.6397  3.832230  4.844940  3.186650
321  2 -0.6403  5.930080  8.990490  2.490640
322  2 -0.7244  8.146340 12.279000  3.075300
323  2 -0.7471 10.866800 15.851400  3.442730
324  2 -0.6525 13.199900 19.783100  2.925930
325  2 -0.7386  6.586440  1.552160  2.926550
326  2 -0.6278  8.369420  5.478250  2.392870
327  2 -0.6407 10.581800  8.328890  2.719040
328  2 -0.6791 13.150300 12.090200  3.099580
329  2 -0.6473 14.923500 16.090700  2.868010
330  2 -0.7409 17.464100 19.770400  3.019040
331  2 -0.6233 10.395600  1.952990  3.225630
332  2 -0.6301 12.547600  4.868010  3.061380
333  2 -0.6597 15.065500  8.694840  3.332900
334  2 -0.6377 17.615500 12.223400  2.984010
335  2 -0.7420 14.989300  1.342830  3.385110
336  2 -0.6399 17.423400  5.455330  2.854830
337  2 -0.7541  1.778900 15.735700 10.160300
338  2 -0.6312  4.117070 19.960600 10.699900
339  2 -0.6275  1.667810  8.637110 10.332100
340  2 -0.7239  4.642450 11.970200 10.445100
341  2 -0.6973  6.602150 16.022300 10.588200
342  2 -0.7369  8.622110 19.679900 10.797600
343  2 -0.6757  2.082990  1.340630 10.716600
344  2 -0.6782  4.363590  5.066030 10.441400
345  2 -0.6217  6.531300  8.474630 10.460000
346  2 -0.6053  8.654220 12.225200 10.942400
347  2 -0.7208 10.808300 15.820000 10.860600
348  2 -0.6377 12.868900 19.737200 11.387700
349  2 -0.7284  6.741140  1.037920 10.441300
350  2 -0.6389  8.615850  5.038060 10.806600
351  2 -0.6088 10.775300  8.850040 10.627300
352  2 -0.7729 13.157300 12.657100 10.630900
353  2 -0.6013 15.318900 16.221500 10.585000
354  2 -0.7126 16.999600 19.151600 10.461100
355  2 -0.6711 11.350900  1.410740 10.540200
356  2 -0.6792 12.889800  5.145250 10.512900
357  2 -0.6698 15.511300  8.610910 10.720100
358  2 -0.6751 -0.206790 12.148100 10.907400
359  2 -0.7286 15.189500  1.203200 10.806600
360  2 -0.6766  0.002155  5.271440 10.225300
361  2 -0.7605  2.134240 13.482700 13.503800
362  2 -0.8066  4.081220 17.223500 13.600500
363  2 -0.7068  2.298130  6.315680 13.706500
364  2 -0.7939  3.790160  9.864980 13.449100
365  2 -0.6692  6.644140 13.640900 13.436000
366  2 -0.8009  8.718410 17.142500 14.022300
367  2 -0.6684  2.019460 20.770800 13.556200
368  2 -0.7817  4.344830  2.587930 13.787800
369  2 -0.7285  6.211150  6.026960 13.458700
370  2 -0.8493  8.379330  9.910980 13.694300
371  2 -0.7981 11.081700 13.683100 13.765200
372  2 -0.7133 13.429600 17.092400 13.820800
373  2 -0.7471  6.278560 20.928500 13.731600
374  2 -0.8434  8.769020  2.218910 13.616700
375  2 -0.7632 10.724300  6.362900 13.652700
376  2 -0.7365 13.432600  9.857760 13.502900
377  2 -0.7580 15.412100 13.614700 13.566400
378  2 -0.7564 -0.224103 17.165900 13.649000
379  2 -0.7044 10.779700 21.203800 13.604200
380  2 -0.7624 13.219700  2.896430 13.551100
381  2 -0.7174 15.111300  6.401320 13.792000
382  2 -0.7432  0.092340  9.779990 13.420100
383  2 -0.7004 15.706300 20.803000 14.054300
384  2 -0.6950 -0.116564  2.646010 13.638300
385  2 -0.6217 -0.381166 14.726700 16.386500
386  2 -0.6471  2.013910 18.326500 16.977800
387  2 -0.7018 17.297900  7.827800 17.033500
388  2 -0.6513  1.861180 10.835500 16.721700
389  2 -0.5766  4.196020 14.837500 16.709100
390  2 -0.6467  6.058630 18.090700 16.890500
391  2 -0.6899  0.029712  0.149195 16.994900
392  2 -0.6790  2.165150  4.055850 16.585900
393  2 -0.6207  4.420950  7.422980 16.809600
394  2 -0.6514  6.359180 11.111900 16.640900
395  2 -0.5832  8.398420 14.803800 16.708600
396  2 -0.6301 10.688600 18.801900 16.893200
397  2 -0.5914  4.046630  0.244702 16.561000
398  2 -0.6200  6.595380  3.477580 17.038100
399  2 -0.6288  8.134900  6.644430 16.758700
400  2 -0.5912 11.052600 11.450700 16.974200
401  2 -0.6364 12.904300 15.358100 16.842400
402  2 -0.6473 15.489500 18.483800 16.798600
403  2 -0.5405  8.438070  0.079747 16.998200
404  2 -0.6808 10.684200  3.863640 17.081100
405  2 -0.6242 12.511700  8.220300 16.779900
406  2 -0.6462 15.414000 11.516400 16.667700
407  2 -0.7449 12.831600 22.191600 16.721000
408  2 -0.7088 15.252600  3.960040 16.304800
409  2 -0.6875 -0.370202 15.064300 24.662500
410  2 -0.6417  1.573370 17.753500 24.715300
411  2 -0.6415 17.500800  7.187760 24.461400
412  2 -0.6976  1.807710 10.981900 24.812000
413  2 -0.6279  4.214240 14.769300 24.891400
414  2 -0.6887  6.188210 18.542500 24.575300
415  2 -0.5880 17.082000  0.175911 25.624100
416  2 -0.6636  1.783990  3.791410 24.813500
417  2 -0.6659  4.324610  7.920440 24.629800
418  2 -0.6194  6.501940 11.246900 24.596500
419  2 -0.6661  8.152190 14.603200 25.079500
420  2 -0.6253 10.580500 18.330400 24.661100
421  2 -0.6491  3.475740 22.221800 24.849300
422  2 -0.6939  6.006400  3.862760 24.565200
423  2 -0.5933  8.198710  7.940350 24.905600
424  2 -0.6101 10.053800 11.573600 25.039100
425  2 -0.6971 12.902900 15.068300 24.346000
426  2 -0.7426 15.376600 18.309800 24.681900
427  2 -0.7120  7.932590 21.944400 24.551000
428  2 -0.6973 10.962900  3.939170 24.568800
429  2 -0.6856 13.333200  7.696220 24.264800
430  2 -0.6260 15.212700 10.964200 24.478200
431  2 -0.6326 13.181700  0.364209 24.636200
432  2 -0.6332 14.992100  4.014420 24.598700
433  2 -0.7897  1.641350 15.951500 27.818300
434  2 -0.8060  3.486580 19.832600 27.745900
435  2 -0.7303  1.917470  8.935600 27.642100
436  2 -0.7796  3.951990 12.545600 27.748200
437  2 -0.7216  6.284530 16.220300 27.883500
438  2 -0.6522  8.307530 20.074600 27.541800
439  2 -0.6861  1.591130  1.470160 28.031000
440  2 -0.8093  3.763520  5.284880 27.692700
441  2 -0.5960  5.758750  8.687210 28.021300
442  2 -0.7220  8.211670 12.679200 28.193000
443  2 -0.7554 10.430700 16.242200 27.655300
444  2 -0.7619 12.451600 19.857300 27.596500
445  2 -0.7510  5.979150  1.378750 27.664900
446  2 -0.8164  8.461480  5.197500 27.314000
447  2 -0.7649 10.375000  8.658690 27.740300
448  2 -0.7170 12.455000 12.496200 27.756700
449  2 -0.7890 14.998100 15.956100 27.961400
450  2 -0.7483 17.421800 19.369600 27.835100
451  2 -0.8265 10.240000  1.554150 27.505900
452  2 -0.7834 12.932900  5.530290 27.554100
453  2 -0.7974 14.855200  9.064440 27.428600
454  2 -0.7528 16.911000 12.441700 27.783400
455  2 -0.6914 14.938500  1.478180 27.851600
456  2 -0.7277 17.131900  5.244170 27.487100
457  2 -0.7237  2.015520 13.659600 31.197400
458  2 -0.6086  4.357940 17.269100 31.007900
459  2 -0.6384  1.281240  6.319490 30.555400
460  2 -0.6277  3.528280 10.052600 30.753100
461  2 -0.6708  6.069610 14.045900 30.980400
462  2 -0.5879  7.837890 17.893000 30.835700
463  2 -0.6693  1.326850 20.864800 30.768400
464  2 -0.7031  3.708890  3.044020 30.445300
465  2 -0.6607  5.897560  5.926740 30.832600
466  2 -0.6904  8.134890  9.562800 31.016400
467  2 -0.6630 10.578200 13.731700 31.066000
468  2 -0.6882 12.477500 17.360900 30.673300
469  2 -0.6196  6.019070 20.989200 30.843000
470  2 -0.6312  8.566460  3.323230 30.358600
471  2 -0.6262 10.523900  5.983370 30.368100
472  2 -0.6437 12.830600  9.770470 30.917900
473  2 -0.5685 14.804700 13.404100 30.677000
474  2 -0.6873 17.286800 16.950900 30.741200
475  2 -0.6724 10.171400 21.414400 30.539400
476  2 -0.6444 12.676000  2.739580 30.343100
477  2 -0.5698 15.260200  6.768940 30.513400
478  2 -0.6372 16.779500 10.303100 30.770600
479  2 -0.6510 14.704300 21.338500 30.751500
480  2 -0.6403 16.685500  3.054410 31.076900
481  2 -0.7400  1.942180 13.791900 38.301500
482  2 -0.6587  3.950510 17.175900 38.858900
483  2 -0.7223  1.427760  5.806150 38.429200
484  2 -0.7000  3.874890  9.554950 38.596200
485  2 -0.6868  6.540790 13.167400 38.420800
486  2 -0.7105  9.131750 17.076500 38.468100
487  2 -0.6000  1.919820 21.032500 38.641600
488  2 -0.6390  3.992800  2.196410 38.414300
489  2 -0.6672  6.202860  5.484190 38.162300
490  2 -0.6615  8.318210  9.754590 38.660300
491  2 -0.6412 10.641200 13.232600 38.598700
492  2 -0.6563 13.251700 17.209000 38.625800
493  2 -0.6707  5.936910 20.490600 38.497100
494  2 -0.6685  8.447010  2.416830 38.467900
495  2 -0.6977 11.044000  6.381170 38.106600
496  2 -0.6802 12.749500  9.665020 38.961200
497  2 -0.7263 15.311500 13.721100 38.330400
498  2 -0.6428 17.698100 17.560600 38.642300
499  2 -0.6426 10.741800 20.926000 38.839000
500  2 -0.6120 12.897500  2.189370 38.616800
501  2 -0.7268 14.998500  5.596770 38.374100
502  2 -0.6654 17.445100  9.452530 38.813900
503  2 -0.5489 14.516500 20.547500 38.765200
504  2 -0.6552 17.318900  2.234440 38.524000

