Generated by pymatgen.io.lammps.data.LammpsData

320  atoms

  2  atom types

0.000000 16.591382  xlo xhi
0.000000 22.882610  ylo yhi
0.000000 24.472453  zlo zhi

Masses

1  208.9804
2   78.9600

Atoms

1    1  0.8351  1.050680 11.244800 10.451100
2    1  0.8379  1.040840 11.209600 22.673000
3    1  0.8375  1.050430 22.724500 10.537900
4    1  0.8342  1.035880 22.623200 22.581200
5    1  0.8332  5.162470 11.273700 10.420100
6    1  0.8317  5.156890 11.156500 22.628900
7    1  0.8286  5.115530 22.658500 10.412200
8    1  0.8315  5.155200 22.632700 22.694600
9    1  0.8353  9.350440 11.217100 10.405200
10   1  0.8371  9.320350 11.201300 22.640900
11   1  0.8373  9.344160 22.669200 10.494000
12   1  0.8418  9.324560 22.611200 22.561800
13   1  0.8303 13.462300 11.265900 10.412600
14   1  0.8347 13.463400 11.207000 22.628600
15   1  0.8255 13.419300 22.682500 10.401900
16   1  0.8382 13.461700 22.631600 22.690500
17   1  0.8409  3.120520  0.493652  1.740160
18   1  0.8348  3.106240  0.541408 14.051300
19   1  0.8345  3.152530 11.922000  1.780970
20   1  0.8344  3.088400 11.956400 14.064700
21   1  0.8325  7.201330  0.515184  1.807530
22   1  0.8410  7.202940  0.526773 14.028900
23   1  0.8348  7.171030 11.976600  1.786550
24   1  0.8382  7.243820 11.996500 14.024000
25   1  0.8394 11.363000  0.525195  1.757570
26   1  0.8369 11.419400  0.540830 14.061600
27   1  0.8366 11.438800 11.940800  1.794650
28   1  0.8379 11.391300 11.973500 14.062500
29   1  0.8349 15.476900  0.481178  1.783880
30   1  0.8378 15.504600  0.525840 13.980000
31   1  0.8362 15.482900 11.944200  1.747110
32   1  0.8364 15.510100 11.970500 13.997100
33   1  0.8420  3.129870  5.451120  7.991360
34   1  0.8283  3.095340  5.485400 20.205000
35   1  0.8388  3.153310 16.892300  7.917790
36   1  0.8306  3.055820 16.959000 20.098700
37   1  0.8351  7.215580  5.488440  7.912370
38   1  0.8358  7.245820  5.528280 20.061100
39   1  0.8308  7.204490 16.891700  7.906520
40   1  0.8386  7.256850 16.981000 20.041200
41   1  0.8325 11.428500  5.475740  7.971370
42   1  0.8331 11.360600  5.531370 20.205400
43   1  0.8346 11.447100 16.883800  7.882330
44   1  0.8300 11.377700 16.961300 20.110200
45   1  0.8384 15.512900  5.440490  7.982270
46   1  0.8371 15.520200  5.524410 20.076600
47   1  0.8311 15.493900 16.856900  7.969990
48   1  0.8400 15.556700 16.933600 20.124700
49   1  0.8424  1.052040  6.191530  4.370730
50   1  0.8263  1.065130  6.280090 16.530500
51   1  0.8402  1.013930 17.723800  4.384500
52   1  0.8266  1.034780 17.708100 16.475900
53   1  0.8254  5.131150  6.210650  4.304660
54   1  0.8432  5.115600  6.230520 16.618600
55   1  0.8218  5.156250 17.663400  4.306970
56   1  0.8428  5.167900 17.670600 16.628600
57   1  0.8384  9.332530  6.154790  4.425040
58   1  0.8218  9.374340  6.245900 16.579900
59   1  0.8356  9.242130 17.636800  4.426820
60   1  0.8263  9.347920 17.683900 16.566700
61   1  0.8269 13.453300  6.250850  4.303740
62   1  0.8403 13.389400  6.206090 16.586700
63   1  0.8245 13.482900 17.666300  4.257100
64   1  0.8421 13.418800 17.714500 16.591900
65   1  0.8486  0.993878  2.328220  5.941890
66   1  0.8380  1.014490  2.311870 18.172500
67   1  0.8410  1.019260 13.757400  5.893760
68   1  0.8367  0.987350 13.747200 18.142200
69   1  0.8358  5.195950  2.327710  5.973790
70   1  0.8442  5.169710  2.278740 18.139400
71   1  0.8338  5.137570 13.735300  5.895640
72   1  0.8449  5.163320 13.726500 18.133800
73   1  0.8434  9.288110  2.312590  5.949980
74   1  0.8451  9.307570  2.314890 18.109200
75   1  0.8427  9.317920 13.761500  5.921440
76   1  0.8399  9.319490 13.739900 18.121400
77   1  0.8371 13.482200  2.324980  5.952110
78   1  0.8479 13.466800  2.264730 18.162200
79   1  0.8268 13.456200 13.772600  5.901620
80   1  0.8458 13.455300 13.751400 18.130000
81   1  0.8386  3.060700  9.490540  6.384810
82   1  0.8297  3.097360  9.518120 18.635700
83   1  0.8358  3.121480 20.948600  6.404430
84   1  0.8319  3.088220 20.936700 18.589900
85   1  0.8397  7.294410  9.516730  6.393910
86   1  0.8353  7.229540  9.504700 18.627800
87   1  0.8372  7.211500 20.988100  6.381000
88   1  0.8416  7.237150 20.952300 18.603500
89   1  0.8334 11.387100  9.480970  6.427270
90   1  0.8377 11.395700  9.497920 18.608500
91   1  0.8413 11.401200 20.984200  6.376080
92   1  0.8347 11.418300 20.900100 18.655900
93   1  0.8406 15.543000  9.503630  6.390510
94   1  0.8326 15.541200  9.517830 18.635000
95   1  0.8394 15.538900 20.990100  6.416130
96   1  0.8377 15.531500 20.960900 18.587000
97   1  0.8412  3.105590  8.024340 12.439700
98   1  0.8406  3.064980  8.008700  0.192397
99   1  0.8392  3.103080 19.493500 12.472200
100  1  0.8325  3.079680 19.455300  0.187115
101  1  0.8421  7.248540  8.015900 12.444400
102  1  0.8389  7.254880  8.046380  0.210270
103  1  0.8408  7.251690 19.479000 12.431800
104  1  0.8366  7.258480 19.494400  0.208144
105  1  0.8447 11.393300  8.022620 12.453600
106  1  0.8378 11.380400  8.037590  0.196787
107  1  0.8351 11.380000 19.461500 12.461100
108  1  0.8394 11.379100 19.484700  0.228089
109  1  0.8428 15.533400  8.040150 12.452800
110  1  0.8391 15.569600  8.056670  0.209589
111  1  0.8411 15.521900 19.454100 12.468300
112  1  0.8352 15.554600 19.504500  0.180293
113  1  0.8408  1.036680  3.840930 24.188400
114  1  0.8337  1.017470  3.754250 12.003600
115  1  0.8418  1.020870 15.254800 24.210200
116  1  0.8351  1.011870 15.240700 11.983100
117  1  0.8320  5.150080  3.779140 24.195300
118  1  0.8387  5.171240  3.772940 11.963900
119  1  0.8361  5.163820 15.274100 24.221600
120  1  0.8322  5.198830 15.176100 11.961300
121  1  0.8419  9.339330  3.818450 24.161000
122  1  0.8364  9.312890  3.798990 12.014800
123  1  0.8399  9.304600 15.248600 24.198100
124  1  0.8376  9.307590 15.257000 11.983500
125  1  0.8313 13.447900  3.768630 24.191400
126  1  0.8386 13.444900  3.763590 11.959000
127  1  0.8356 13.457000 15.260400 24.209100
128  1  0.8383 13.453200 15.158000 11.970100
129  2 -0.5423  1.034550  3.568070  8.554680
130  2 -0.5263  0.983642  3.564450 20.842500
131  2 -0.5311  1.060260 15.004700  8.586710
132  2 -0.5255  0.999081 14.972100 20.832800
133  2 -0.5462  5.163090  3.569410  8.626780
134  2 -0.5191  5.191130  3.545930 20.847000
135  2 -0.5380  5.155050 14.955900  8.634930
136  2 -0.5109  5.165160 15.039800 20.805300
137  2 -0.5286  9.343590  3.589570  8.588180
138  2 -0.5165  9.270130  3.564390 20.823900
139  2 -0.5282  9.345830 15.001600  8.598050
140  2 -0.5157  9.292200 15.003200 20.820200
141  2 -0.5469 13.444400  3.547400  8.639100
142  2 -0.5245 13.456300  3.566180 20.805400
143  2 -0.5534 13.466300 14.961400  8.591600
144  2 -0.5205 13.470600 15.018800 20.834500
145  2 -0.5201  3.057920  8.218610  3.688370
146  2 -0.5164  3.164340  8.252930 15.900600
147  2 -0.5104  3.085900 19.727700  3.712980
148  2 -0.5183  3.179410 19.684700 15.899800
149  2 -0.4936  7.249810  8.247070  3.692160
150  2 -0.5001  7.232140  8.212800 15.922000
151  2 -0.5092  7.262530 19.708500  3.711800
152  2 -0.5044  7.213030 19.666800 15.927100
153  2 -0.5077 11.364800  8.239860  3.703480
154  2 -0.5170 11.419300  8.259480 15.901400
155  2 -0.5013 11.389300 19.705300  3.707970
156  2 -0.5168 11.401600 19.684500 15.901800
157  2 -0.5156 15.556800  8.213810  3.745290
158  2 -0.5030 15.519200  8.228000 15.908400
159  2 -0.5183 15.570700 19.696500  3.737190
160  2 -0.5143 15.481700 19.692800 15.905400
161  2 -0.5143  3.091130  9.290180  9.726910
162  2 -0.5408  3.084460  9.284030 21.989400
163  2 -0.5206  3.022690 20.696900  9.782240
164  2 -0.5376  3.144020 20.721400 21.960800
165  2 -0.5163  7.244360  9.260910  9.732650
166  2 -0.5368  7.255890  9.250190 22.002700
167  2 -0.5213  7.276250 20.721700  9.779340
168  2 -0.5339  7.223110 20.735000 22.006200
169  2 -0.5256 11.375500  9.263020  9.744640
170  2 -0.5361 11.371800  9.309660 21.992500
171  2 -0.5196 11.340500 20.694700  9.726000
172  2 -0.5409 11.425100 20.719700 22.032200
173  2 -0.5133 15.565900  9.263040  9.785560
174  2 -0.5323 15.499000  9.285360 22.003800
175  2 -0.5102 15.596800 20.748600  9.792520
176  2 -0.5328 15.486800 20.732500 22.003700
177  2 -0.4911  1.044580  2.495310  2.411200
178  2 -0.5149  1.028620  2.496240 14.666900
179  2 -0.4961  1.055020 13.907700  2.419500
180  2 -0.5094  0.987780 13.949400 14.681100
181  2 -0.5183  5.171350  2.526050  2.407710
182  2 -0.5102  5.195500  2.525150 14.711800
183  2 -0.5232  5.150720 14.012000  2.396920
184  2 -0.5160  5.176770 13.938000 14.680300
185  2 -0.5039  9.297320  2.525090  2.390320
186  2 -0.5179  9.312010  2.503120 14.683700
187  2 -0.5053  9.305980 13.919500  2.392380
188  2 -0.5170  9.315770 13.965000 14.663800
189  2 -0.5159 13.418500  2.523800  2.387070
190  2 -0.5063 13.436900  2.518810 14.716600
191  2 -0.5178 13.446100 13.990100  2.413520
192  2 -0.5155 13.455600 13.940600 14.652900
193  2 -0.4847  1.009880 11.005200  4.711630
194  2 -0.4887  1.035200 10.969100 16.893500
195  2 -0.4743  1.022520 22.464700  4.695350
196  2 -0.4904  1.023110 22.378600 16.922700
197  2 -0.4878  5.195270 10.963900  4.692740
198  2 -0.4848  5.178100 10.960700 16.941300
199  2 -0.4901  5.186140 22.399800  4.726050
200  2 -0.4860  5.193420 22.415200 16.913600
201  2 -0.4730  9.332600 10.989200  4.694560
202  2 -0.4846  9.331110 10.970100 16.896900
203  2 -0.4792  9.303670 22.443300  4.672290
204  2 -0.4768  9.325880 22.375100 16.950700
205  2 -0.4822 13.438400 10.995300  4.650920
206  2 -0.4855 13.442200 10.971600 16.958200
207  2 -0.4914 13.462100 22.415400  4.740960
208  2 -0.4862 13.420000 22.418200 16.927700
209  2 -0.4843  3.128930  0.870220  7.664780
210  2 -0.4926  3.114180  0.933147 19.835300
211  2 -0.4840  3.115900 12.271400  7.612520
212  2 -0.4899  3.157920 12.359800 19.838400
213  2 -0.4885  7.234870  0.911946  7.663030
214  2 -0.4794  7.276100  0.890673 19.814600
215  2 -0.4830  7.266470 12.304800  7.629160
216  2 -0.4829  7.239810 12.330000 19.837100
217  2 -0.4869 11.376200  0.894271  7.630930
218  2 -0.4826 11.354100  0.894196 19.844100
219  2 -0.4890 11.392300 12.245700  7.625730
220  2 -0.4836 11.365500 12.336000 19.829400
221  2 -0.4942 15.521800  0.881923  7.620920
222  2 -0.4917 15.530400  0.878031 19.844600
223  2 -0.4857 15.550500 12.257100  7.650290
224  2 -0.4938 15.492500 12.343000 19.806500
225  2 -0.4927  3.069450  5.261130  1.410370
226  2 -0.4853  3.111180  5.231590 13.643100
227  2 -0.4913  3.066080 16.704400  1.425760
228  2 -0.4792  3.074270 16.660600 13.706300
229  2 -0.4772  7.254180  5.291710  1.450310
230  2 -0.4844  7.221730  5.245950 13.660600
231  2 -0.4887  7.260500 16.707900  1.470010
232  2 -0.4831  7.238070 16.681500 13.684300
233  2 -0.4846 11.378000  5.266220  1.408320
234  2 -0.4930 11.444900  5.232340 13.643000
235  2 -0.4883 11.406500 16.690500  1.421160
236  2 -0.4832 11.417700 16.669700 13.667300
237  2 -0.4804 15.575600  5.290880  1.451050
238  2 -0.4769 15.502900  5.245890 13.664700
239  2 -0.4865 15.575600 16.698100  1.423940
240  2 -0.4821 15.505700 16.683100 13.677300
241  2 -0.4807  1.045810  6.586480 10.764100
242  2 -0.4868  1.044960  6.606000 22.961100
243  2 -0.4716  1.004480 18.048000 10.770000
244  2 -0.4894  1.020690 18.066600 22.949500
245  2 -0.4841  5.097490  6.648680 10.748200
246  2 -0.4850  5.117520  6.564650 22.952800
247  2 -0.4824  5.148890 18.059300 10.730900
248  2 -0.4780  5.174740 18.069700 22.950400
249  2 -0.4899  9.341150  6.629860 10.791000
250  2 -0.4852  9.380440  6.596150 22.942200
251  2 -0.4793  9.322240 18.059100 10.734400
252  2 -0.4803  9.329020 18.055100 22.954500
253  2 -0.4808 13.463500  6.621800 10.740800
254  2 -0.4809 13.435700  6.578410 22.944000
255  2 -0.4806 13.472700 18.049700 10.729100
256  2 -0.4759 13.478500 18.045200 22.962400
257  2 -0.6767  1.020240 10.070900  0.827226
258  2 -0.6723  1.022630 10.095700 13.135400
259  2 -0.6714  1.014900 21.539500  0.836847
260  2 -0.6727  1.026090 21.536400 13.151300
261  2 -0.6868  5.194020 10.094500  0.864028
262  2 -0.6616  5.195570 10.090800 13.114700
263  2 -0.6815  5.177710 21.525500  0.918308
264  2 -0.6716  5.168170 21.536800 13.124500
265  2 -0.6591  9.310000 10.088600  0.892797
266  2 -0.6623  9.324070 10.085100 13.129200
267  2 -0.6694  9.330370 21.548000  0.848419
268  2 -0.6648  9.296950 21.513800 13.162400
269  2 -0.6861 13.484400 10.106100  0.865008
270  2 -0.6673 13.471300 10.070400 13.121100
271  2 -0.6850 13.447900 21.555800  0.892200
272  2 -0.6715 13.467500 21.530600 13.129100
273  2 -0.6840  3.111430  1.653260 11.390700
274  2 -0.6647  3.066190  1.638450 23.598300
275  2 -0.6710  3.085050 13.077600 11.372000
276  2 -0.6522  3.079870 13.072500 23.598700
277  2 -0.6608  7.243880  1.626660 11.376400
278  2 -0.6419  7.267840  1.638530 23.532700
279  2 -0.6698  7.253410 13.092200 11.353600
280  2 -0.6466  7.241100 13.107900 23.563300
281  2 -0.6772 11.374800  1.634210 11.395200
282  2 -0.6575 11.356000  1.653840 23.560300
283  2 -0.6687 11.379300 13.080800 11.375500
284  2 -0.6507 11.372000 13.080700 23.557800
285  2 -0.6812 15.520300  1.634810 11.382600
286  2 -0.6482 15.536100  1.618950 23.567200
287  2 -0.6760 15.522500 13.103000 11.349900
288  2 -0.6587 15.557100 13.082300 23.596300
289  2 -0.6763  3.063180  4.360870  5.261680
290  2 -0.6712  3.092700  4.367380 17.447700
291  2 -0.6780  3.064980 15.805700  5.260270
292  2 -0.6723  3.081660 15.807200 17.453100
293  2 -0.6895  7.270800  4.341800  5.282140
294  2 -0.6726  7.220800  4.334660 17.466700
295  2 -0.6921  7.238900 15.766600  5.281750
296  2 -0.6797  7.251740 15.780200 17.466600
297  2 -0.6762 11.410000  4.339540  5.248030
298  2 -0.6786 11.407700  4.337470 17.481300
299  2 -0.6826 11.366100 15.792600  5.245420
300  2 -0.6821 11.419500 15.793500 17.447800
301  2 -0.6720 15.580600  4.359500  5.236290
302  2 -0.6549 15.527500  4.326080 17.416100
303  2 -0.6728 15.581200 15.837000  5.195270
304  2 -0.6599 15.519400 15.807400 17.436200
305  2 -0.6423  0.999594  7.338160  7.059520
306  2 -0.6690  1.000350  7.329730 19.249700
307  2 -0.6382  1.011330 18.785000  7.057700
308  2 -0.6718  0.969973 18.798300 19.203300
309  2 -0.6542  5.145350  7.351020  7.013620
310  2 -0.6761  5.163510  7.389360 19.196500
311  2 -0.6699  5.156540 18.798100  6.993540
312  2 -0.6774  5.172870 18.807500 19.184300
313  2 -0.6711  9.294270  7.344960  6.997690
314  2 -0.6797  9.321360  7.353880 19.239600
315  2 -0.6461  9.295780 18.808500  6.992610
316  2 -0.6878  9.326050 18.815500 19.212000
317  2 -0.6589 13.509300  7.356370  7.045850
318  2 -0.6713 13.456200  7.364830 19.187300
319  2 -0.6502 13.459300 18.805700  7.013530
320  2 -0.6735 13.477900 18.796000 19.219800

