Generated by pymatgen.io.lammps.data.LammpsData

78  atoms

 2  atom types

0.000000 12.376190  xlo xhi
0.000000 10.375919  ylo yhi
0.000000 17.144600  zlo zhi
-5.990540 0.000000 0.000000  xy xz yz

Masses

1  106.42
2   78.96

Atoms

1   1  0.669759  7.353930  4.455450
2   1  4.150360  2.054960 12.628600
3   1 -3.093560  7.253640  4.481980
4   1  7.632740  2.069140 12.601300
5   1 -0.727639  4.095820  4.739640
6   1  5.826840  5.138170 12.511000
7   1  1.280610  0.720263  9.908210
8   1 -2.685180  5.108690  1.884390
9   1  9.766480  0.488286 10.041400
10  1  0.739131  5.165820  1.756220
11  1  5.724360  7.987080 10.390600
12  1 -1.293120  8.061360  1.405970
13  1  7.373560  4.200840 15.372400
14  1  3.824110  8.939260  7.377070
15  1  4.140920  3.847340 15.422800
16  1 -4.813730  8.958170  7.297750
17  1  5.953080  1.094170 15.479300
18  1 -0.670840  1.696160  6.979850
19  2  3.130570  3.590170  4.444180
20  2  1.756660  5.048750 13.057600
21  2  4.925700  0.264693  4.382660
22  2 -0.173227  8.962560 11.715500
23  2  7.536040  4.361550  5.098630
24  2 -2.652750  5.169720 12.038700
25  2 -2.728990  7.745190 10.116600
26  2 -4.920810  8.228310  1.384850
27  2 -0.198923  4.443960  9.627540
28  2 -1.511240  1.325900  2.026140
29  2  1.865010  7.704760 10.845800
30  2  2.610200  8.282070  1.298640
31  2  9.489870  1.049400 15.593100
32  2  7.916100  1.514900  7.296590
33  2  5.708690  7.867600 15.179900
34  2  5.517670  5.718800  7.400050
35  2  2.517130  0.522226 15.742500
36  2  3.155500  1.921940  6.401360
37  2 -1.247720  8.597940  5.520260
38  2  5.786890  1.027050 11.162700
39  2 -2.828820  5.118390  5.963200
40  2  7.669290  4.174410 11.195300
41  2  0.927633  5.431850  6.027010
42  2  4.069180  4.085180 11.105900
43  2 -0.779109  1.854000 11.136500
44  2 -0.933658  4.119060  0.440010
45  2  3.819970  8.892080 11.711900
46  2  0.670019  7.060460  0.016889
47  2 -4.924690  9.239360 11.604000
48  2 -3.117840  6.764260  0.167967
49  2  5.656140  5.239520 16.864400
50  2  5.719400  7.927610  6.178190
51  2  3.946510  1.802620 16.970400
52  2  1.214040  0.591372  5.707980
53  2  7.389040  2.300910 17.089400
54  2  9.952650  0.303810  5.616600
55  2  2.506560  6.519560  2.841510
56  2  2.209670  2.887290 14.033800
57  2 -3.255990  9.032680  2.782610
58  2  7.719350  0.159409 14.168900
59  2 -2.491320  3.020650  3.398930
60  2  7.285300  6.544600 13.988300
61  2  3.966140  5.772850 14.065400
62  2  0.968914  3.229080  3.223460
63  2  9.274440  3.157100 14.056500
64  2  7.585020  6.152200  3.262150
65  2  4.317770 -0.022885 14.033100
66  2  0.250226  9.231570  2.865900
67  2  3.057350 -0.584106  8.703050
68  2  9.813960  2.478970  8.425790
69  2  3.995100  6.963700  8.885210
70  2 -4.714680  7.110030  8.850930
71  2  7.974300 -0.524252  8.687080
72  2  1.060370  2.658250  8.461250
73  2 -0.325600  6.151480  7.834290
74  2  5.174270  3.448650  9.152270
75  2 -0.487963  0.189341 13.075300
76  2 -0.974388  5.687800 15.742100
77  2  5.871900  3.618120  1.400900
78  2  5.371580  9.981290  3.687660

