Generated by pymatgen.io.lammps.data.LammpsData

504  atoms

  2  atom types

0.000000 17.774667  xlo xhi
0.000000 21.986255  ylo yhi
0.000000 41.650458  zlo zhi

Masses

1  208.9804
2   78.9600

Atoms

1    1  0.0138  1.882160  8.173950 10.460400
2    1  0.5612 -0.363781 21.414500  5.305480
3    1  0.6119  9.515410  0.649627 13.933700
4    1  0.1579 16.367700 13.642400  8.665220
5    1  0.0099  2.694100  5.655430 15.484200
6    1  0.5304  3.419780  0.426719 13.151100
7    1  0.4457  7.540560  7.204300 12.760400
8    1  0.4687  2.522060 14.026400 16.179700
9    1  0.6294 13.512700 16.180700 13.024200
10   1  0.0824  2.652290 10.348500 13.539200
11   1  0.6530 12.812800  9.964010  7.084170
12   1  0.5580 17.162700 18.252500 14.087400
13   1  0.1394  1.997960  5.371600 11.732500
14   1  0.3571  4.401630  8.047050 16.641700
15   1  0.4599  5.840780  9.446780 14.697300
16   1  0.2774  7.059220  4.136480 12.299400
17   1  0.6203 13.412600 20.040600 12.812800
18   1  0.0591 16.820300  0.751586 16.081300
19   1  0.7046 11.012600 13.315900 13.759800
20   1  0.6994 11.683000  9.496620 18.450100
21   1  0.5696  8.964850 21.903500 24.434300
22   1  0.6206  9.940160 17.306700 14.309500
23   1  0.3898 10.176900  3.597070 12.766800
24   1  0.6181  7.988650  1.727860 16.880700
25   1  0.5629  1.516020 16.433200 36.676400
26   1  0.7443 15.589500 20.610400  1.876310
27   1  0.3310  2.131580  7.929560 37.464100
28   1  0.8095  7.158430 21.949300  3.239720
29   1  0.5322  4.639990 18.186700  4.866290
30   1  0.3744  3.240760 20.258600  6.849360
31   1  0.8964  7.251230  5.211510  4.391400
32   1  0.3351  3.403460  7.162230  1.402800
33   1  0.6246 13.467000  8.343550  0.031578
34   1  0.2444  1.980620  6.469770  6.680320
35   1  0.2657 17.105100  5.953640 36.558100
36   1  0.7594 15.787700 11.038600 41.326300
37   1  0.5593 14.912700 19.662200 28.376400
38   1  0.0590  4.279770  7.026570 39.801400
39   1  0.6339 12.893400  1.002670  8.438940
40   1  0.5279  6.472050 11.980000  9.297480
41   1  0.0433  7.147630  9.289680 40.298000
42   1  0.7758  4.104120 14.483100 36.962800
43   1  0.5753  9.952750  3.200450 40.200300
44   1  0.2389 16.797700  3.585040 37.917100
45   1  0.7218 12.640100 18.429300  4.663800
46   1  0.5876  0.888909 22.378900  0.709913
47   1  0.0858  1.034490 15.661600  6.331790
48   1  0.6826 14.073800  3.503270  2.175730
49   1  0.1112  0.169592  8.774090  8.083010
50   1  0.3026  3.286450  3.791380 18.458000
51   1  0.0325  4.931830  9.434470  0.373928
52   1  0.1514  2.196220 10.089500  6.435870
53   1  0.5558  9.769390 12.848500  9.753470
54   1  0.5401  1.862230  1.421270  6.900630
55   1  0.5339 17.002500 11.649500  2.620070
56   1  0.2718 15.933400 11.933200 18.444600
57   1  0.4048  5.334220  2.603700 10.577600
58   1  0.0925 16.606900 13.995200  4.965160
59   1  0.5613  1.498950 18.250700 40.398300
60   1  0.7421 12.903000 15.077800  1.891600
61   1  0.7025 10.924900  2.109780  5.422840
62   1  0.6017  9.860230 18.909900  3.057800
63   1  0.6062 15.360000  6.304830  9.975680
64   1  0.0823  3.915930  7.888780 32.034300
65   1  0.1992  4.241610 10.304700 11.072400
66   1  0.6601 17.014000 14.575300 37.482700
67   1  0.0978  0.883698 12.947000  6.745580
68   1  0.6929 13.035200 18.407900  0.404645
69   1  0.2232  2.682520 15.615500  9.332360
70   1  0.3988  0.289978  5.498090 40.707500
71   1  0.7709 11.652100  5.755350  5.131350
72   1  0.3154  1.440180 15.165600 12.391900
73   1  0.1499  5.218070  7.418730 36.650200
74   1  0.7305  5.549090  1.363210  6.711920
75   1  0.2487 17.463800 11.005600 10.186300
76   1  0.8277  8.834460  7.150780  8.689950
77   1  0.5443 11.857200  5.961720 11.463600
78   1 -0.0212  1.610100  8.713350 15.833500
79   1  0.1478  2.658210 13.122400 11.409000
80   1  0.5997 13.301600 14.439500  9.089290
81   1  0.4907  8.700890  8.140840  0.984716
82   1  0.6217  9.503990 14.706100  2.134760
83   1  0.4723  6.190920  3.720650 39.403600
84   1  0.5860 12.621000 10.212000  4.068730
85   1  0.3519 17.874400  7.244570  5.160820
86   1  0.8086  3.531370  2.187790  2.651610
87   1  0.4601  2.665360  5.132290  4.090780
88   1  0.1882 16.702400 11.050900  6.492510
89   1  0.7681 16.801300  2.405280 10.327300
90   1  0.5387  4.986700  9.801580  7.383630
91   1  0.4933  3.161010 17.663400 22.272900
92   1  0.6306 13.068900  2.003370 11.943300
93   1  0.6440 16.640000 15.007500  1.403140
94   1  0.5301 -0.190817  8.283810  0.177173
95   1  0.7445  9.773300 10.708700  7.266130
96   1  0.1010  0.258698 18.857900  7.091940
97   1  0.6963  9.387080 11.833000 24.850500
98   1  0.6327  8.171300 19.124400 21.260300
99   1  0.2271  5.257180  3.824610 16.132100
100  1  0.3168  2.913810 11.489800 17.836600
101  1  0.3965  7.152430 11.270000 31.440900
102  1  0.5347  7.239960  5.334620 21.096500
103  1  0.5426  8.781210  1.178360 21.802200
104  1  0.3407 17.573700  3.498050 14.641600
105  1  0.8618  1.937190  0.503941 25.811200
106  1  0.8301  6.639940  2.492940 34.770000
107  1  0.4025 13.386700  9.258810 28.361600
108  1  0.4285  6.787790  4.633120 29.937100
109  1  0.6329  6.713030 17.719200 24.843900
110  1  0.6944  9.637610  6.675470 20.817100
111  1  0.3422 13.867800  1.770720 28.827700
112  1  0.8230 11.791500 14.634000 31.883000
113  1  0.7468 13.425800 13.975100 28.471300
114  1  0.4974 14.435700 12.122600 34.692200
115  1  0.6694 13.439500 18.336700 19.694200
116  1  0.8046 10.338100 18.987500 32.888600
117  1  0.4395  8.421340  2.445640 30.872400
118  1 -0.0367 16.952100 22.374600 19.056700
119  1  0.7381 11.128600 11.729900 21.257400
120  1  0.6118 13.844800 11.247600 24.730200
121  1  0.5472  7.479130 13.862100  4.156180
122  1  0.1835  2.906350 18.552100 19.400600
123  1  0.0148  4.565010  4.598630 13.295500
124  1  0.4174  2.080350  3.476790  9.573390
125  1  0.5828  6.126830 17.988900 18.122100
126  1  0.5640  5.586780  1.098030 21.179200
127  1  0.1589  3.324040 19.997100 16.168100
128  1  0.2288 -0.021712  6.466010 16.777000
129  1  0.7626 12.913100  8.028170 14.066800
130  1  0.7297  9.342620 14.220500 17.317300
131  1  0.2907 14.425500  1.712520 20.452200
132  1  0.7403  9.001910 20.382100  8.326060
133  1  0.5665  6.188100  5.426550  8.894320
134  1  0.6536 13.653200 11.502100 16.200700
135  1  0.5859 16.675900 22.050500 13.060200
136  1  0.5396 10.349200 15.740300 10.106000
137  1 -0.1363  1.898310 22.120400 17.732000
138  1  0.1616 15.851700 15.878700  7.127680
139  1  0.3390  1.143700 12.678900 21.104300
140  1  0.5764 11.807900  0.597783 18.737500
141  1  0.6513 13.214500 14.914400 23.544700
142  1  0.6335  3.486840  7.236450 23.459500
143  1  0.0060  2.622820  2.632040 15.052200
144  1  0.7957 13.221400  6.150480 18.564900
145  1  0.3428 16.475200  9.356260 15.224500
146  1  0.3298 17.419200  8.409430 12.127100
147  1  0.6906  8.934850  4.574440 24.253900
148  1  0.6579  6.600930 12.169500 23.271100
149  1  0.7009  5.078230 14.794100 20.267800
150  1  0.5698 15.616300  3.230190 23.008500
151  1  0.6939  5.509450 17.880000  9.807450
152  1  0.5963 14.260400  2.358900 15.513600
153  1  0.5899  7.566980 12.386200 34.285700
154  1  0.6645  6.804880  9.942620 27.951000
155  1  0.5074 13.167800 19.210000 15.606200
156  1  0.6581  5.412480 21.476100 25.376700
157  1  0.7187 10.322600  3.227540 18.897700
158  1  0.4064  2.516580 14.566700 23.418100
159  1  0.0538  0.429110 11.798500 16.165200
160  1  0.6684 10.227800 15.571000  5.742620
161  1  0.0917  4.370730 21.289700 19.028900
162  1  0.4640 16.549100 18.749500 20.763800
163  1  0.6701 10.497700 18.253300 18.181000
164  1  0.1953 16.404700  3.065390 17.890500
165  1  0.7532  1.697980 15.785500 28.006900
166  1  0.1315 -0.317814 16.485400  9.629350
167  1  0.4467  5.836170 13.207100 11.893900
168  1  0.1676  5.265760  1.164840 15.661400
169  1  0.3791  6.119660 16.749200 28.438800
170  1  0.7109  3.870940  5.954350 26.291100
171  1  0.6547  7.238390  6.317210 18.355300
172  1  0.7405 15.689800  6.935700 22.535700
173  1  0.4536  0.737077  5.416660 19.437000
174  1  0.3448  1.958350 18.739900 10.162000
175  1  0.1726 17.029600 21.463800 21.710700
176  1  0.6257 10.067100 12.238400 28.070700
177  1  0.5244  3.688900 11.768600 26.991900
178  1  0.5097 10.537400  3.832620 29.740900
179  1  0.2011  0.406520 19.490900 17.786600
180  1  0.0596  4.388900  7.755730 12.447100
181  1  0.5234 17.484700 15.267700 21.773000
182  1  0.5062  8.917050  2.571020 10.432000
183  1  0.7827  9.889470  9.475690 13.644100
184  1  0.7204  7.435190 10.508800 18.145000
185  1  0.8590  5.793660 15.521200 15.365500
186  1  0.1852  1.405210  1.163970 20.495900
187  1  0.2013 17.676000  8.980850 18.434400
188  1  0.7717 10.769000  4.728890 15.002500
189  1  0.6597 14.948900 14.071300 20.347600
190  1  0.7637  0.753413  8.764090 26.313500
191  1  0.7463  4.605060 18.299300 14.002700
192  1  0.7212 12.944200 10.665600 10.534300
193  1  0.6923  9.209050 14.647700 34.859400
194  1  0.4233  2.731470 11.936900  2.214340
195  1  0.7488 14.205900  4.280300 40.439700
196  1  0.5878  2.334620 20.861200 39.263300
197  1  0.3025  3.574370  9.032050  4.387600
198  1  0.5334 10.280200 10.888000  2.095360
199  1  0.6393  7.955370 20.790700 35.979500
200  1  0.6969 11.511700 21.847800  0.780837
201  1  0.5755 13.736200 22.087200  4.579200
202  1  0.3030  5.938500 11.394700  2.216320
203  1  0.4134  9.498530 21.500800 38.801900
204  1  0.5572 13.567500 14.111700  5.236070
205  1  0.3881 10.406800  9.327210 40.706000
206  1  0.6712 10.701000  3.106670  1.349850
207  1  0.6424 17.376500  4.243910  2.399670
208  1  0.5886  9.656370 17.302200 40.342400
209  1  0.5230  8.078100 19.768900 41.565600
210  1  0.4646  2.054450 16.319000  3.782530
211  1  0.6217  7.054720  3.300130  0.870339
212  1  0.5602 12.584900  1.032960 31.248800
213  1  0.3562  8.955330 16.266800 29.165500
214  1  0.2739 17.597000 10.787300 32.620500
215  1  0.5767 13.533400  1.048590 38.349400
216  1  0.6909  2.539110  4.142100 29.527500
217  1  0.7314  1.353910 19.721000 33.551100
218  1  0.5925 14.238500  0.605064 26.199500
219  1  0.2570  1.068040  8.623400 30.571900
220  1  0.5234  5.985310  1.233590 28.685600
221  1  0.2448  0.289344  4.763890 33.823800
222  1  0.7170  0.041679 18.239900 25.615700
223  1  0.6451 15.469200 20.280700 32.295800
224  1  0.7782 12.385700  7.666340 23.988700
225  1  0.1140  1.733810  4.632150 37.211100
226  1  0.3434  4.845420 13.495600 30.103500
227  1  0.7727  1.132780 19.976200 28.829400
228  1  0.3749  1.689040  3.002950 39.585300
229  1  0.6722  6.196440  2.973450 25.321200
230  1  0.3083  2.758050  5.225950 32.559700
231  1  0.5659  5.874770  0.702437 38.047600
232  1  0.5480  9.657400 16.749900 26.578800
233  1  0.5470  6.099710  7.974970 24.394300
234  1  0.4863 10.277900  6.122840 35.652600
235  1  0.6607 11.352100 17.764600 22.096500
236  1  0.3750 14.608000  9.674110 32.226700
237  1  0.6516 10.987900  2.552300 25.565900
238  1  0.6501  0.532998 11.903500 24.807400
239  1  0.6706 14.463200 17.704100 32.054100
240  1  0.7805  9.300820  7.191250 27.830300
241  1  0.8317 14.614400 19.560500 37.696500
242  1  0.4749 15.374600  3.091980 33.671300
243  1  0.1842  4.836110 10.559400 33.432300
244  1  0.5770 14.833500  9.188980 37.611500
245  1  0.7066  7.313750 13.508700 38.267900
246  1  0.5605  4.585820 19.860900 -0.423946
247  1  0.6200  5.643930 16.516000  2.043380
248  1  0.3209 16.911500  8.133810 34.535700
249  1  0.4050  2.487280 10.047600 40.188300
250  1  0.2455  6.815320 10.149700 36.952500
251  1  0.5734 12.928900  5.589490 27.356000
252  1  0.5124  7.294550  7.409350 31.046000
253  1  0.6622 12.064900 21.147600 35.969800
254  1  0.6819  5.906530 15.824300 33.985400
255  1  0.8760 11.022500 12.280900 38.262000
256  1  0.3215 15.842400  6.891180 30.183500
257  1  0.5837 12.928300  5.297180 33.041500
258  1  0.5580 10.791300  3.260590 36.522000
259  1  0.6637 15.723000 17.070500 40.344200
260  1  0.6892 11.570700 20.178400 27.109400
261  1  0.7050 11.146500  9.296300 31.721500
262  1  0.7100 16.692400  4.683550 26.356600
263  1  0.2787  6.324120  8.264590 34.153400
264  1  0.6196 13.392100  6.134560 36.429500
265  1  0.4705  2.463390 14.699900 31.197300
266  1  0.5091  4.019100 12.665300 40.973800
267  1  0.7907  2.149210  4.034310 22.805700
268  1  0.7527  7.700490 18.864800  5.872810
269  1  0.7234  6.541840 14.696000  7.332210
270  1  0.6697  7.421890 17.466800 36.440900
271  1  0.6044  3.884470 21.574800 30.840200
272  1  0.4286 13.829500 21.539300 22.488400
273  1  0.3309  7.141720 18.754000 30.403600
274  1  0.7285 10.449200  9.535350 35.218300
275  1  0.6541 -0.255581 15.644800 33.003800
276  1  0.2136  2.534970 20.874200 21.111000
277  1  0.3841  7.759020 19.520700 27.872200
278  1  0.4518 16.331800  0.583776 39.725900
279  1  0.2874  9.124030  8.069920 38.441700
280  1  0.2038  3.139210  6.964050 34.796100
281  1  0.7876  3.453410 21.490400 35.741000
282  1  0.4110 -0.029071  1.748780 36.055300
283  1  0.5445  4.466600 19.084300 32.819400
284  1  0.6448 16.981000 15.500500 16.638600
285  1  0.1927  2.285540 11.734700 31.745300
286  1  0.8314 15.578000  3.828440  6.260190
287  1  0.7010 15.959300 15.420800 25.293700
288  1  0.0803  4.478870 10.452100 30.401800
289  2 -0.4578 17.008900 10.634700 38.434900
290  2 -0.5567 16.219000  4.470090 12.196600
291  2 -0.7930  1.935820  3.720440  1.165790
292  2 -0.4229 13.981900 13.009700 37.437800
293  2 -0.7341 15.199300 20.049200 40.547700
294  2 -0.7164  0.024244  4.809010  8.073320
295  2 -0.6336  4.661950 19.933900 37.599100
296  2 -0.7238  5.570550  5.650820  2.161790
297  2 -0.6913 16.624900  1.475510  7.092510
298  2 -0.7422 11.823000 12.666300  7.014750
299  2 -0.5879  3.770490 11.593700 38.126500
300  2 -0.6282  3.336150  0.960715 41.001800
301  2 -0.5707  0.401351 15.209900 39.801700
302  2 -0.9284 17.171200  7.206440 39.178800
303  2 -0.8565  8.638930  0.484807 41.706400
304  2 -0.8123  8.430640  5.258950 39.439800
305  2 -0.4720  1.056040 12.621300 36.064900
306  2 -0.7089  9.925450 19.134700 36.862200
307  2 -0.4663 14.989600 16.977900 37.672300
308  2 -0.8063 13.484100  2.869240  4.869570
309  2 -0.6318  4.052290 13.578400  4.239390
310  2 -0.6976  8.199380  9.468080  3.154890
311  2 -0.8433 13.033400 19.927800  2.406820
312  2 -0.8363 13.981600  3.554970 37.440000
313  2 -0.7552  4.135000 15.951200  7.102880
314  2 -0.7802  9.571860 20.385500  5.038820
315  2 -0.6132 12.620900 11.114100 41.051800
316  2 -0.6940 16.627200  0.688023  3.136190
317  2 -0.6697  4.924570 17.357500 36.075600
318  2 -0.8134  7.218420 16.494300  4.601320
319  2 -0.6151 11.819800  5.278430 38.810200
320  2 -0.5910  8.254290  1.114900  7.813510
321  2 -0.6643 10.961100  2.593320 32.685100
322  2 -0.6841 14.413400 16.927800  3.419180
323  2 -0.6244 -0.487229 18.159600  1.622430
324  2 -0.8793 14.593200 11.139400  8.403900
325  2 -0.9028 11.061500 16.736900  2.065790
326  2 -0.7466  6.429970 19.268300  2.484320
327  2 -0.5913 10.492300  8.460680  6.139820
328  2 -0.6129 15.027000 22.068500 10.672500
329  2 -0.4831  9.527230 15.175200 37.702900
330  2 -0.6664  4.304790  0.559996  9.000390
331  2 -0.5706 11.100100  3.403160  8.643050
332  2 -0.6963  5.993390 19.538100  7.817140
333  2 -0.6056 10.554600  8.574880 10.552700
334  2 -0.7000  8.453290 16.968400  7.662740
335  2 -0.5117 12.545000  7.950720  2.665700
336  2 -0.7890 10.955500  0.941395  3.181210
337  2 -0.8480  8.526080 13.014100  7.309470
338  2 -0.3928 12.435500 19.287600  8.167290
339  2 -0.8118  5.748520  8.110360  9.563240
340  2 -0.5641 12.041300  5.359200  0.598481
341  2 -0.6167  6.740750  2.634390  3.947180
342  2 -0.5991  4.336900 21.936300  4.451990
343  2 -0.7863  4.701960  4.336080  7.057770
344  2 -0.6486 15.959700  7.234570 13.802100
345  2 -0.7124  1.091980 20.082300 13.275000
346  2 -0.5693 11.051700 18.130900 11.464600
347  2 -0.9566  1.449170  8.927890  2.630340
348  2 -0.7173 12.937800 16.202300  6.398190
349  2 -0.6876  8.490170 14.990400 14.853900
350  2 -0.6652  5.090820  3.426910 36.359100
351  2 -0.6586  0.942306  3.109730  4.916190
352  2 -0.6849  6.727130 17.966300 15.600700
353  2 -0.6317  0.251799 18.927000 38.381600
354  2 -0.7607  3.691850 16.324500 17.742600
355  2 -0.5621 14.520900  3.693700  8.978280
356  2 -0.7217 12.935400  3.152780 18.344800
357  2 -0.6588 10.612900 11.005600 16.459900
358  2 -0.6324 15.798300 18.579300 11.729800
359  2 -0.4740 14.854600  6.073160  3.401010
360  2 -0.4691  6.809800  7.529700  6.107710
361  2 -0.7614 13.729500  8.954280 16.589000
362  2 -0.7975  5.974430 20.552300 22.119900
363  2 -0.5766 10.327100  7.428260 15.236400
364  2 -0.5977 14.482100  7.387850  7.139190
365  2 -0.8119 12.137600 14.167800 11.447400
366  2 -0.6042 14.569000 11.739800 30.449500
367  2 -0.5288 12.094800  8.617490 20.778900
368  2 -0.7478  3.188190 16.168800 14.253500
369  2 -0.9260 17.439100  3.431200 21.248800
370  2 -0.8214  3.991390 12.280100  8.024580
371  2 -0.5029  9.424540  4.534630  6.165640
372  2 -0.8358  4.533750 11.814100 14.669100
373  2 -0.6570  7.291400 14.174600  0.524415
374  2 -0.6493 15.411600  9.290790  1.933860
375  2 -0.6541 12.144700 10.543600 13.351600
376  2 -0.5676  8.624850 10.020300  9.550310
377  2 -0.6773  9.018410 11.713500 12.453300
378  2 -0.7937 14.956500 13.207700  1.453990
379  2 -0.7726 12.884600  4.188500 13.521400
380  2 -0.5783 15.366400 11.244500 11.931000
381  2 -0.7255 11.713100 10.437600 23.917300
382  2 -0.7202 15.760500  7.373910 25.649700
383  2 -0.9169  9.085500  5.410990 10.721200
384  2 -0.8280 13.096500  0.388818 14.320300
385  2 -0.8188 15.496400 18.707100 18.007500
386  2 -0.7095  7.163490  7.760040 16.138700
387  2 -0.6367  4.105340  4.453890 21.019400
388  2 -0.5482 14.695000  5.690400 16.636200
389  2 -0.4878  7.327880 15.691200 18.451900
390  2 -0.8235  1.005700  1.882110 12.442900
391  2 -0.7341 12.166100 16.932700 16.274900
392  2 -0.6357  1.333440  6.420250 24.758200
393  2 -0.6566  3.278400  6.925040 18.868800
394  2 -0.8937  7.163730  3.186270 22.687800
395  2 -0.5689  5.875010 16.153600 22.564500
396  2 -0.6413 14.445100 13.864500 17.036100
397  2 -0.6745  8.262500 21.491000 19.286800
398  2 -0.7338  6.433950  0.924744 12.813800
399  2 -0.5897  4.544260 19.104900 26.939800
400  2 -0.4626  0.721738  7.913890 21.575900
401  2 -0.8128  8.153170  4.367770 15.083100
402  2 -0.6204 12.089100 14.062900 20.410100
403  2 -0.6481 10.624300  1.791560 16.016200
404  2 -0.6076 10.248200  6.163260 18.178700
405  2 -0.5468  2.094290 15.320300  1.034860
406  2 -0.6474 15.859800 15.189200 13.662100
407  2 -0.7674  7.175280  3.409780 18.930400
408  2 -0.4620  5.797230 12.798900 17.933200
409  2 -0.6844  4.317930 12.517400 21.956000
410  2 -0.4615 15.608900 12.507000 26.896700
411  2 -0.4658  5.845460  9.190230 20.309900
412  2 -0.5968  2.480860  9.828140 24.321900
413  2 -0.5807 15.083000  9.313510 22.208000
414  2 -0.7829 11.064600 13.654000 25.883400
415  2 -0.7748 13.031900  7.025590 30.281300
416  2 -0.7177  7.000340  5.672390 26.296600
417  2 -0.5503  9.161830  9.645930 20.564800
418  2 -0.6011 17.181500 17.741700 27.986300
419  2 -0.5133  9.151750 16.724200 20.610900
420  2 -0.6061 17.399000 21.425100 26.884200
421  2 -0.5696 10.048400 20.179000 16.460500
422  2 -0.6239  9.996770 13.313600 30.703500
423  2 -0.7597 12.123600  0.408270 24.464300
424  2 -0.4985  4.625240 19.696100 11.499300
425  2 -0.5398 14.654000 14.859400 32.238600
426  2 -0.6051  0.835039  3.037970 24.629400
427  2 -0.5958 10.919100  3.618280 21.571500
428  2 -0.7372  8.940120  9.938280 29.353500
429  2 -0.5302 10.985300 21.470200 11.014600
430  2 -0.5709 12.600900 16.634600 29.144300
431  2 -0.5715  9.486760  7.531950 23.258900
432  2 -0.7659  9.681890 19.397700 25.476000
433  2 -0.5218 11.625200  4.789420 24.298100
434  2 -0.2013 15.415400 15.820000 29.061300
435  2 -0.6634  4.367580 15.100700 26.882500
436  2 -0.7582  2.321270  9.552220 34.923100
437  2 -0.8641  7.447100  0.485270 26.830100
438  2 -0.5953 14.531200 19.945600 25.454600
439  2 -0.8852 -0.268463 14.826100 19.249100
440  2 -0.5419  2.804720 19.974300 24.430400
441  2 -0.7800 10.176300  4.765630 27.331800
442  2 -0.5286  0.731385 11.144400 27.653300
443  2 -0.6613  5.784810 21.935400 34.021000
444  2 -0.4151  8.521710 12.806200 20.145700
445  2 -0.4520  9.654020 21.657300 33.498600
446  2 -0.6477  8.769730  9.422090 25.851400
447  2 -0.6973  7.002850 12.695900 27.483100
448  2 -0.5715  9.134170  5.462690  2.493860
449  2 -0.8456 14.206000  3.493990 26.473500
450  2 -0.8655 16.324600  3.191710 -0.213464
451  2 -0.6612  5.811710 16.108800 12.157100
452  2 -0.7583  3.748150 18.991700 29.896200
453  2 -0.7730  2.468230  7.386350 28.738400
454  2 -0.4814 17.387300  2.966870 28.685400
455  2 -0.5768 11.310100 11.836200 33.714400
456  2 -0.7460  4.559310  3.609500 27.132300
457  2 -0.8836 15.670600 13.582700 23.130600
458  2 -0.5333  0.306352 13.833600 30.385700
459  2 -0.4549 12.841900 18.757400 34.433800
460  2 -0.6037 -0.418830 18.153300 31.554000
461  2 -0.4533 13.252200 17.015600 25.880900
462  2 -0.7687  2.398990 16.964400 32.952900
463  2 -1.0353 15.623800  5.849550 34.065500
464  2 -0.7184  0.581975 14.635300 25.970600
465  2 -0.4745  4.388800 15.152700 39.405700
466  2 -0.7588 11.962500  9.753610 37.495300
467  2 -0.7514  4.785170  8.623950 26.778900
468  2 -0.7777 11.305500 13.205900  3.887000
469  2 -0.4795 13.271400  5.525390 21.529300
470  2 -0.5119  2.010280  0.617688 33.265200
471  2 -0.6830  0.442318 11.824700  0.347828
472  2 -0.5699  8.645120 15.975600 24.429000
473  2 -0.6620 12.015100 20.297000 30.601400
474  2 -0.9111  6.266820 14.003600 32.402300
475  2 -0.5548 -0.781305 -0.064349 30.969000
476  2 -0.7176 14.225200 16.893300 21.711800
477  2 -0.5301  2.619980  0.526769 28.559600
478  2 -0.6199  3.674640  1.683140 23.943100
479  2 -0.8586  0.556327 17.949500 22.860900
480  2 -0.8918  6.355140 13.960900 35.905300
481  2 -0.2701 12.578900 15.603800 35.105900
482  2 -0.4827  0.911919 20.652100 36.273000
483  2 -0.8368  9.175250 11.690800 36.291400
484  2 -0.7021  7.474370 18.812500 33.329300
485  2 -0.8360  8.776000  1.614280 36.665100
486  2 -0.5956 15.529600 21.469400 36.337300
487  2 -0.5506  5.380740  0.645333  1.511760
488  2 -0.7479 12.855300  2.210080 41.263100
489  2 -0.6386  9.254490 12.364400 40.539600
490  2 -0.7145 10.030700 16.305900 32.185500
491  2 -0.7550 12.257800 20.808100 39.739300
492  2 -0.4817 12.529000 16.076600 40.346200
493  2 -0.6061  1.370830 20.172100  3.375020
494  2 -0.7768 12.435800  7.813210 34.699500
495  2 -0.8756 11.696100 20.187700 20.500000
496  2 -0.7632  3.043730  1.088310 37.850000
497  2 -0.5047 17.031100 17.749700 34.809600
498  2 -0.6481  6.618010 18.011400 40.296100
499  2 -0.6815  6.555320  5.180780 33.336400
500  2 -0.6489  9.903240 21.846100 28.367300
501  2 -0.6418 13.823900  0.395493 33.587700
502  2 -0.7861  8.769350  8.316720 33.093100
503  2 -0.6796  3.862990  3.125460 31.418100
504  2 -0.6573  9.727280  6.492180 30.286300

