Generated by pymatgen.io.lammps.data.LammpsData

360  atoms

  2  atom types

0.000000 16.677463  xlo xhi
0.000000 21.699897  ylo yhi
0.000000 28.493178  zlo zhi

Masses

1  208.9804
2   78.9600

Atoms

1    1  0.7487  1.980620 12.510200 20.992200
2    1  0.8177  3.738230 17.049400 20.865000
3    1  0.7733  1.933420  5.565010 21.397400
4    1  0.8053  4.234480  9.666390 21.044700
5    1  0.7922  6.501510 13.050700 20.229000
6    1  0.7908  8.011450 16.934600 20.369400
7    1  0.7528  1.643480 20.677700 20.902400
8    1  0.7306  4.275350  2.569270 21.301000
9    1  0.6974  6.107210  6.170340 20.372600
10   1  0.7493  8.352020  9.747080 20.830400
11   1  0.8106 10.565700 13.472100 20.136000
12   1  0.9371 12.162400 16.849200 20.694400
13   1  0.7747  5.683920 20.317300 20.399100
14   1  0.7443  8.218580  2.347220 20.007900
15   1  0.8308 10.009100  6.170710 20.098100
16   1  0.8778 12.606100  9.840270 20.857300
17   1  0.7675 14.932400 13.582400 20.202900
18   1  0.7762 16.311300 16.764800 21.091300
19   1  0.8226  9.983790 20.731600 20.332900
20   1  0.8352 12.263700  2.567900 20.869200
21   1  0.8188 14.133000  6.138030 20.398700
22   1  0.8157 16.278100  9.716010 21.195600
23   1  0.8975 14.456100 20.820500 20.452700
24   1  0.7610 16.556700  2.123530 20.719800
25   1  0.7684  1.814510 13.092700 26.493300
26   1  0.7908  4.328050 16.696500 26.785500
27   1  0.8203  1.632150  5.806120 26.763100
28   1  0.7253  3.928310  9.463940 26.429000
29   1  0.8555  5.731690 12.956100 26.183700
30   1  0.8623  8.282900 16.864100 24.971200
31   1  0.7880  1.482550 19.856500 26.674900
32   1  0.8042  3.164220  2.490320 26.370000
33   1  0.7511  5.987880  6.160870 26.712100
34   1  0.7824  7.804850  9.803310 26.512900
35   1  0.8584  9.589150 13.405700 26.099800
36   1  0.8005 12.230900 16.731900 26.744200
37   1  0.9420  5.701560 21.162900 26.663500
38   1  0.8507  7.844480  2.788910 26.354000
39   1  0.8799 10.265800  6.212850 26.294300
40   1  0.7122 12.049700  9.649330 27.444100
41   1  0.8799 14.754800 13.043000 26.244200
42   1  0.6909 16.435100 16.641800 26.568200
43   1  0.7018  9.817370 20.256100 26.550800
44   1  0.7860 11.852800  2.545320 26.332200
45   1  0.9027 14.237900  5.770340 26.389200
46   1  0.7644 15.877700  9.157770 26.885000
47   1  0.8265 14.132100 20.460400 26.262900
48   1  0.8250 15.712600  2.461240 26.587300
49   1  0.7900  1.256680 15.511700  1.372030
50   1  0.7814  3.174060 19.942000  1.162830
51   1  0.7232  1.554320  8.496590  1.470300
52   1  0.8075  3.040100 12.046100  1.592260
53   1  0.7606  6.161340 15.404900  1.454200
54   1  0.6926  7.927970 19.466900  1.004480
55   1  0.7356  1.465140  1.229600  1.385580
56   1  0.8432  3.488490  4.239450  1.810280
57   1  0.7457  5.509880  8.761880  0.937655
58   1  0.7711  8.004820 12.453700  1.246180
59   1  0.7747  9.589790 15.885400  0.912276
60   1  0.6722 11.659000 19.556100  1.416400
61   1  0.8355  5.516830  0.997883  1.203520
62   1  0.8211  7.949840  5.130340  1.540400
63   1  0.7174  9.626920  8.717130  0.973909
64   1  0.7557 11.413000 11.889900  2.575370
65   1  0.8459 13.891700 15.399700  1.942890
66   1  0.6760 16.126800 19.041200  1.805340
67   1  0.7096 10.047600  1.462210  1.008500
68   1  0.7977 12.161700  5.058080  2.054560
69   1  0.6444 14.196100  8.466390  1.732790
70   1  0.8064 15.786200 11.683900  2.319150
71   1  0.7516 14.372600  1.363570  1.503090
72   1  0.7729 15.882400  4.973620  1.784750
73   1  0.7452  1.814010 15.603100  7.931210
74   1  0.8128  2.880900 19.370700  7.352690
75   1  0.8123  1.722510  8.581100  8.107990
76   1  0.8007  3.376490 11.917000  7.788740
77   1  0.7513  5.456590 15.082200  7.518890
78   1  0.6551  6.553360 19.156700  8.523020
79   1  0.8124  1.196690  1.391380  7.585600
80   1  0.7949  3.099260  4.624140  7.392350
81   1  0.7241  5.598560  8.373460  7.950280
82   1  0.7622  7.563290 11.622300  7.850560
83   1  0.7391  9.247430 14.849200  7.521400
84   1  0.8142 11.060800 18.486400  6.003080
85   1  0.7219  5.204390  1.391490  7.640020
86   1  0.7269  7.503440  4.947810  7.617080
87   1  0.7363  9.580470  7.532460  8.282890
88   1  0.8492 12.334300 11.735100  8.506820
89   1  0.7537 13.878300 15.345500  7.749630
90   1  0.7697 15.091600 18.652600  6.679450
91   1  0.8552  9.637140  0.719963  7.268320
92   1  0.7267 11.833800  4.463020  8.183870
93   1  0.8031 14.166200  8.084430  8.361480
94   1  0.8191 16.201200 11.886800  8.279920
95   1  0.8101 14.003100  1.371420  7.342110
96   1  0.8049 16.041300  4.779760  7.706130
97   1  0.8688 15.872600 14.169200 11.453400
98   1  0.7952  1.755480 17.595300 10.476400
99   1  0.8169  0.049398  6.537750 11.810500
100  1  0.8744  1.503790 10.256000 11.749700
101  1  0.8673  3.768980 14.179300 10.918100
102  1  0.8236  6.020080 17.289400 11.855200
103  1  0.8129 16.117200 21.252800 11.416300
104  1  0.7761  0.932101  2.993360 11.415200
105  1  0.7837  3.883220  6.891400 10.991700
106  1  0.8724  5.824120 10.427900 11.819300
107  1  0.7997  7.776560 13.700600 11.578600
108  1  0.7117  9.523700 18.310700 10.897500
109  1  0.7392  3.191880 21.387100 11.629400
110  1  0.7244  5.517460  3.099560 10.835300
111  1  0.8529  8.014150  7.043620 11.962700
112  1  0.8046 10.250800 11.037500 12.282800
113  1  0.7583 11.290700 14.588700 11.422600
114  1  0.7193 13.645700 17.609600 10.584000
115  1  0.6502  6.964750  0.319396 10.547500
116  1  0.8569  9.885670  2.980610 10.891200
117  1  0.7118 12.654000  6.620340 11.817300
118  1  0.8018 13.893300 10.609500 12.142200
119  1  0.8372 11.458500 21.399100 10.743800
120  1  0.7333 13.973600  3.255660 10.903600
121  1  0.7013 16.615300 13.891200 17.319700
122  1  0.8744  1.854230 17.812900 17.253700
123  1  0.7727  0.158193  6.749630 18.191600
124  1  0.7736  2.170200 11.303600 17.302600
125  1  0.8045  4.034970 14.270200 17.032300
126  1  0.8044  5.623890 17.802000 17.363200
127  1  0.9224 16.344300 21.645200 16.391800
128  1  0.8299  1.746530  3.370050 17.018100
129  1  0.7859  3.798450  7.380890 16.894800
130  1  0.8660  6.396130 11.088500 17.199100
131  1  0.7591  7.734390 14.802900 16.968700
132  1  0.8261  9.742730 18.236400 16.548800
133  1  0.8318  3.528210 21.602400 17.175600
134  1  0.7684  5.420390  3.728290 17.262100
135  1  0.7261  7.747010  7.230400 17.127800
136  1  0.8321 10.760600 10.528500 17.442400
137  1  0.8371 12.093600 14.600300 17.155800
138  1  0.8020 14.509600 17.808700 17.452200
139  1  0.7309  7.914060  0.139330 17.545500
140  1  0.7571 10.745000  3.058880 17.229800
141  1  0.8047 11.747600  6.774900 15.885000
142  1  0.8300 14.657000 10.710300 17.176000
143  1  0.8241 12.230700 21.418100 17.190100
144  1  0.7766 13.954000  3.124720 16.655000
145  2 -0.7648 15.942600 14.079400 28.280200
146  2 -0.8779  2.300540 17.942300 28.250600
147  2 -0.8989 15.897800  6.902500 28.458700
148  2 -0.8252  0.688321 11.146700  0.159576
149  2 -0.7913  3.683640 14.070200 28.040700
150  2 -0.7200  5.599480 19.124400 28.169600
151  2 -0.8409 15.861700  0.109703 27.660300
152  2 -0.8768  1.427160  3.394880 28.320700
153  2 -0.8350  3.596920  6.858390 28.461800
154  2 -0.8973  5.428240 11.054700 27.969900
155  2 -0.8412  7.850970 14.642700 27.570300
156  2 -0.8704  9.344740 17.606900 27.372600
157  2 -0.8758  3.530530  0.103995 27.681500
158  2 -0.7670  5.564520  3.546060  0.038622
159  2 -0.8960  7.982200  7.261780 28.163200
160  2 -0.9403  9.563070 10.886200 28.306300
161  2 -0.6085 11.816800 14.168400 28.332600
162  2 -0.8272 14.368200 17.801900 28.083500
163  2 -0.8874  7.580300  0.723966 28.133800
164  2 -0.8124  9.500040  4.222290 28.034800
165  2 -0.8498 12.594500  6.943080 28.021500
166  2 -0.7576 13.679100 11.430500  0.573766
167  2 -0.8938 11.846400 21.683500 28.188600
168  2 -0.8426 13.585900  3.468900 28.088400
169  2 -0.3344  1.740510 15.305200 24.638800
170  2 -0.2673  4.123380 19.168500 25.138600
171  2 -0.4222  1.451910  8.195470 25.342900
172  2 -0.4387  3.500500 11.664700 24.870800
173  2 -0.3706  5.693280 15.584300 24.586000
174  2 -0.3709  7.539220 19.958600 24.889300
175  2 -0.3116  1.666990  0.747784 24.779500
176  2 -0.3699  3.910190  4.966410 24.650600
177  2 -0.3892  6.399580  8.484250 24.854000
178  2 -0.4367  7.661190 12.357700 24.643300
179  2 -0.4050 10.796100 15.652200 24.823600
180  2 -0.3829 12.151200 18.693300 24.916000
181  2 -0.3631  5.722890  1.737990 24.938900
182  2 -0.3207  8.290870  5.505470 24.865400
183  2 -0.2791  9.888420  8.596820 24.705600
184  2 -0.3185 12.371500 11.417800 25.550900
185  2 -0.2535 14.054300 15.095500 24.400800
186  2 -0.4156 16.207600 18.833400 24.947900
187  2 -0.3513  9.564810  1.094100 24.726100
188  2 -0.4572 12.152200  4.910480 25.012600
189  2 -0.3287 13.964800  8.603150 25.130500
190  2 -0.3887 16.033900 11.347300 24.999500
191  2 -0.3401 13.967800  1.372880 24.566800
192  2 -0.4676 16.494800  4.865370 25.257400
193  2 -0.4705  0.016837 14.149900 22.269000
194  2 -0.3636  1.919100 17.649800 22.718500
195  2 -0.3584 16.070900  6.946360 22.444700
196  2 -0.3695  1.723500  9.781410 22.650900
197  2 -0.3896  4.212040 13.727500 21.848300
198  2 -0.5343  5.834260 18.226800 21.767100
199  2 -0.4641 16.206300 21.332300 22.254100
200  2 -0.4275  1.031340  3.437410 22.703800
201  2 -0.3072  4.135580  7.551650 22.840200
202  2 -0.3932  6.461960 10.768400 22.373900
203  2 -0.4385  8.034800 14.722200 21.917700
204  2 -0.4050 10.126000 17.768900 22.124700
205  2 -0.3626  4.123970 21.654100 22.528500
206  2 -0.2850  6.372480  3.774510 22.639500
207  2 -0.3662  7.801600  7.245350 22.146600
208  2 -0.4759 10.565200 11.210800 21.735400
209  2 -0.3770 12.063800 14.429500 21.896000
210  2 -0.3672 14.403200 18.190600 22.006600
211  2 -0.4349  7.647400  0.514171 21.643600
212  2 -0.3560 10.118500  3.665480 22.019000
213  2 -0.3623 11.757300  7.164470 21.833500
214  2 -0.4316 14.097200 11.446800 22.106400
215  2 -0.3385 12.351000 21.530000 22.041800
216  2 -0.4045 14.144300  3.761850 22.189600
217  2 -0.7870  1.811880 12.961800  9.799130
218  2 -0.8230  4.224660 16.623500  9.568630
219  2 -0.7819  1.272680  6.019020  9.296400
220  2 -0.8250  3.562700  9.611140  9.898040
221  2 -0.8396  5.564530 12.546600  9.360340
222  2 -0.7655  7.407280 15.732800  9.758220
223  2 -0.7042  0.981175 20.365300  9.126400
224  2 -0.8771  3.315030  2.466310  9.475730
225  2 -0.8836  5.207440  5.935010  9.115020
226  2 -0.7869  7.624960  9.261380 10.295800
227  2 -0.8177  9.749700 12.792100  9.977050
228  2 -0.7977 11.305600 16.685200  8.936600
229  2 -0.8246  4.099510 19.922800  9.581400
230  2 -0.8786  7.806710  2.497040  9.042720
231  2 -0.8475 10.157100  5.649660 10.092100
232  2 -0.7802 12.272600  9.673320 10.411100
233  2 -0.8531 14.084900 13.240800  9.831920
234  2 -0.8002 16.380200 16.517500  9.691600
235  2 -0.8216  9.206240 20.523700  9.294240
236  2 -0.8763 11.814700  1.925010  9.130290
237  2 -0.8903 14.602900  5.734890  9.776230
238  2 -0.8182 16.597800  9.683990  9.783070
239  2 -0.6701 13.912200 20.674000  9.121530
240  2 -0.8937 16.110500  2.418730  9.394930
241  2 -0.4740 16.161800 14.252200  7.007690
242  2 -0.4320  0.497546 17.331400  6.158140
243  2 -0.3260 16.007600  7.183150  6.315630
244  2 -0.3307  1.421020 11.182200  6.038140
245  2 -0.3714  3.199950 14.074900  5.985640
246  2 -0.2553  4.589200 17.233600  5.636050
247  2 -0.3415 15.304400 21.628800  5.619080
248  2 -0.3672  1.554470  3.538110  5.615340
249  2 -0.3610  3.389100  7.563420  6.244860
250  2 -0.3012  5.254140 10.798900  5.889820
251  2 -0.3883  7.151680 13.624300  5.739530
252  2 -0.4000  8.459620 18.178600  6.503820
253  2 -0.4491  3.076130  0.191431  6.263730
254  2 -0.3111  5.535130  3.355330  5.628670
255  2 -0.3624  7.352910  6.830010  5.915850
256  2 -0.4380 10.072400 10.017100  7.501200
257  2 -0.3571 11.572400 13.446300  6.009580
258  2 -0.4768 13.108500 16.784800  5.611410
259  2 -0.3467  6.903820 21.362300  6.341360
260  2 -0.3574  9.964880  3.419340  6.162380
261  2 -0.2995 11.969100  6.474930  6.379260
262  2 -0.4314 13.663800 10.263800  6.939850
263  2 -0.3491 11.630000 21.561700  5.563780
264  2 -0.3430 13.986200  3.705260  5.719230
265  2 -0.3496  1.239310 13.674500  3.104340
266  2 -0.2965  3.735930 16.634800  2.638090
267  2 -0.3606  1.270100  5.810790  3.217350
268  2 -0.4128  3.378320  9.335440  2.864800
269  2 -0.4273  5.740220 13.126300  2.547700
270  2 -0.3718  8.089650 17.506300  3.000060
271  2 -0.4454  1.125060 20.776800  3.218010
272  2 -0.4528  3.631560  1.950560  2.974070
273  2 -0.2323  5.605150  6.024470  3.308890
274  2 -0.3707  7.731890  9.552050  2.804750
275  2 -0.5114  9.580080 14.048200  2.872440
276  2 -0.5331 11.782600 17.152400  2.512590
277  2 -0.3088  5.022800 20.840800  3.016820
278  2 -0.2371  8.107120  2.020420  3.306560
279  2 -0.3969 10.083500  6.151760  3.126180
280  2 -0.2704 11.498100  9.407790  4.127690
281  2 -0.3095 14.415900 13.473300  3.925150
282  2 -0.3924 16.123300 16.310200  3.152550
283  2 -0.3235  9.223890 20.641500  3.281820
284  2 -0.3645 12.306100  2.204160  3.146720
285  2 -0.3710 13.720800  6.486080  3.632910
286  2 -0.3195 16.366500  9.187120  3.983710
287  2 -0.3846 13.893000 19.625200  3.591130
288  2 -0.4315 16.131700  2.282620  3.203080
289  2 -0.8287  1.866790 15.584800 18.647700
290  2 -0.8678  3.440970 19.334700 18.768300
291  2 -0.7119  1.999410  8.628380 19.189500
292  2 -0.8442  4.357590 11.539500 18.678500
293  2 -0.8665  5.744180 15.621200 18.874300
294  2 -0.8944  8.210480 19.171000 18.397500
295  2 -0.8109  1.282840  1.002500 18.039500
296  2 -0.8909  4.020350  4.682930 19.247600
297  2 -0.8583  6.012380  8.456600 18.637600
298  2 -0.8288  8.404760 12.344300 18.544100
299  2 -0.8339 10.282000 16.041800 18.776600
300  2 -0.7281 12.321000 19.431600 19.263700
301  2 -0.8569  5.661440  1.071460 18.997700
302  2 -0.8535  8.485260  4.536400 18.500500
303  2 -0.7662 10.871400  8.441040 19.163800
304  2 -0.8032 12.877700 12.421000 18.493900
305  2 -0.8763 14.189500 15.941200 19.274800
306  2 -0.7550 16.459000 19.776600 18.971600
307  2 -0.9312 10.830400  1.023250 19.184600
308  2 -0.7936 11.969800  4.944960 18.636100
309  2 -0.7393 14.374500  8.352090 19.139800
310  2 -0.9336 16.667800 11.600400 19.087600
311  2 -0.7930 14.194300  0.986468 18.508100
312  2 -0.8083  0.210762  4.493280 19.279800
313  2 -0.3650  1.654050 12.989700 15.250400
314  2 -0.4326  3.602610 16.638900 15.872800
315  2 -0.3739  2.448100  5.818220 15.533700
316  2 -0.3422  4.324910  9.817470 15.444800
317  2 -0.4669  6.077210 13.317300 15.637800
318  2 -0.4113  7.070560 17.214600 15.145900
319  2 -0.3762  1.655520 19.736500 15.491000
320  2 -0.3579  3.896780  2.411690 15.386500
321  2 -0.3116  5.695920  5.282360 15.273700
322  2 -0.4553  8.768900  9.570630 15.902400
323  2 -0.4044 10.068800 12.924600 16.040200
324  2 -0.4040 12.306700 17.374800 15.788400
325  2 -0.3242  5.792030 20.427400 15.815900
326  2 -0.2122  7.938060  2.244920 15.519900
327  2 -0.3140  9.416290  5.727920 14.971600
328  2 -0.4845 12.675100  9.748110 15.692800
329  2 -0.3458 14.436500 13.719400 15.675900
330  2 -0.3229 16.281400 16.396400 15.697300
331  2 -0.3648  9.924460 20.837500 15.496900
332  2 -0.4217 11.667000  1.993120 15.210100
333  2 -0.4122 14.690200  5.905770 16.159300
334  2 -0.2877  0.248025  9.573610 15.466500
335  2 -0.4007 14.290400 20.599300 15.391300
336  2 -0.4621 16.225300  2.569450 15.525700
337  2 -0.3635  2.296990 15.951200 12.311200
338  2 -0.2212  4.116160 19.036300 13.280000
339  2 -0.3771  2.407420  7.874870 13.170000
340  2 -0.3743  3.885630 11.977700 12.753200
341  2 -0.4073  5.896700 14.928100 13.008200
342  2 -0.3212  6.948300 19.852600 12.768600
343  2 -0.5091  1.166190  0.680655 13.114900
344  2 -0.3489  3.316450  4.363620 12.699400
345  2 -0.4052  6.221480  7.969080 13.335400
346  2 -0.3795  7.844140 11.522000 13.571500
347  2 -0.4818 10.000300 16.203600 12.881500
348  2 -0.4090 12.437800 19.187300 12.177100
349  2 -0.2404  5.749240  1.253430 13.154100
350  2 -0.3330  7.926190  4.256970 12.357800
351  2 -0.4192 10.421400  8.058000 13.641100
352  2 -0.4389 12.110400 12.808300 13.321900
353  2 -0.2841 13.814200 15.914400 12.907800
354  2 -0.2289 16.443600 18.765000 12.914800
355  2 -0.3874  9.254460  0.598035 12.109100
356  2 -0.3752 11.439800  4.363890 12.974000
357  2 -0.4052 15.283200  8.199890 13.405900
358  2 -0.4652 16.044900 12.009800 12.917900
359  2 -0.3705 14.250000  0.930482 12.770000
360  2 -0.4368 15.246500  4.637180 13.077600

