Generated by pymatgen.io.lammps.data.LammpsData

320  atoms

  2  atom types

0.000000 16.864293  xlo xhi
0.000000 23.165087  ylo yhi
0.000000 24.472453  zlo zhi

Masses

1  208.9804
2   78.9600

Atoms

1    1  0.7339  9.365170 11.224200  3.478050
2    1  0.7158  8.344130  8.884600  0.544452
3    1  0.7660  0.343784  5.478620 17.505300
4    1  0.6913  3.843670  2.030490 18.377600
5    1  0.7216  5.467590 13.719400 12.883600
6    1  0.6215  5.362560 15.294600 16.267400
7    1  0.6444  4.132880 17.727300 15.905200
8    1  0.5188  4.574530  5.613820 16.940200
9    1  0.6438 11.912300  9.668330  8.403440
10   1  0.7427  4.818900 12.068200 23.207600
11   1  0.7420 11.536800  0.580200 10.412400
12   1  0.7050 13.819900  0.447573 -0.079203
13   1  0.8539 16.610700  7.802780  3.391360
14   1  0.6827  4.825540  6.899860 22.156800
15   1  0.7677  3.359910 22.358100 14.248900
16   1  0.5767  0.802842  1.166620  0.278349
17   1  0.6256  4.677160 19.347300  5.278780
18   1  0.8124 13.730900  8.440250  6.234900
19   1  0.5952  1.601090  6.443000  0.478299
20   1  0.6420  4.195310  4.859610 11.849200
21   1  0.6992  8.858090  3.228200 12.416400
22   1  0.7816  0.255493  2.351090 19.256100
23   1  0.7446 12.425300  6.827860  2.052870
24   1  0.6118  4.580210 12.614300  8.610990
25   1  0.7355  9.310370  2.692000  8.841960
26   1  0.8356 14.491600 21.670900 12.572200
27   1  0.5057  9.693660 12.268000  7.359060
28   1  0.7664  5.126210  9.723300 14.815700
29   1  0.7512  2.157220  5.412310 21.006600
30   1  0.7279  9.259310 22.228100 13.914200
31   1  0.7874  0.318547  3.111010  3.503690
32   1  0.7401 15.464400  2.722830  7.571980
33   1  0.7759  0.473152 11.930700  6.919430
34   1  0.7756  3.347750 22.616300 21.811300
35   1  0.7887 14.819400 14.868700  8.448550
36   1  0.6758  3.287280 19.919600  0.330857
37   1  0.7798  2.577550  2.032960  7.498980
38   1  0.5837  7.703340  9.492430 21.016700
39   1  0.6187  8.076110 16.900400 10.397200
40   1  0.7176  5.440390 21.342400  2.642490
41   1  0.7660 10.838500 19.399900 10.922600
42   1  0.6703 15.475000  7.554990 14.035900
43   1  0.8025  8.195100 19.277400 19.471300
44   1  0.7395  5.236840 14.167400 20.422500
45   1  0.7267  3.400910  7.759750  6.424850
46   1  0.7780 13.707000  5.024580 18.565200
47   1  0.7230  1.424420 21.531600 10.150800
48   1  0.8044 14.402700 10.453500 11.819100
49   1  0.8304 12.127100 12.875300  5.401520
50   1  0.7055  1.126330  5.089710  9.451900
51   1  0.6700 12.384200  0.880380  7.168290
52   1  0.6312  7.971670 13.039500 17.310900
53   1  0.6329  7.005040  7.898670  4.038280
54   1  0.7188  7.667690  7.688120 12.868600
55   1  0.7458  2.334970 14.418100  4.812260
56   1  0.6033  4.378520 18.137900 20.017200
57   1  0.7903  8.140390 11.295100 13.345100
58   1  0.7397  1.817980  8.521700 14.823900
59   1  0.7555 10.261400 22.868700  4.421420
60   1  0.7354  7.088160 18.666200 14.714300
61   1  0.7619  4.692230  5.246180  3.424950
62   1  0.6123 10.466700  4.081170 15.572700
63   1  0.7653  3.984310  9.458150  1.364870
64   1  0.7097  6.489920 -0.094713 24.531200
65   1  0.7037  4.050140  7.926210 11.389800
66   1  0.6413 12.708300  3.761060  2.108110
67   1  0.8075  7.536960 17.303900  3.970600
68   1  0.5842  7.404360  9.833310 17.494100
69   1  0.8515  5.830410  1.332570 11.199900
70   1  0.6741  1.097610 20.511000  5.847230
71   1  0.7453  9.590900 19.344100  6.389870
72   1  0.6009  6.085430 19.165900 22.905700
73   1  0.4159  8.298930  1.907320 15.904800
74   1  0.5800  2.372640  0.370795  4.338240
75   1  0.8507  8.079630 15.992200 22.665700
76   1  0.7574  5.049950 20.627500  9.855850
77   1  0.7191 11.071300  4.562670 23.603700
78   1  0.8654  6.803830 23.362100 20.002700
79   1  0.5892 11.024300 15.919700  8.263410
80   1  0.6766  7.689630  8.760130  8.322560
81   1  0.7851  6.169590  4.914330  7.453370
82   1  0.3938  7.622290  5.052930 17.109800
83   1  0.6221 16.186000  1.454970 10.616100
84   1  0.3438  6.705250  4.767930 14.366800
85   1  0.7600  4.818110 13.109900  2.626050
86   1  0.8137  4.190430 10.706900 18.699700
87   1  0.7371  8.104830 22.216700  9.310210
88   1  0.6942  9.362960 20.183000  2.549500
89   1  0.5290  7.699320  5.090740  1.456570
90   1  0.8176 14.575000  6.404070 10.228500
91   1  0.8395 11.812200  5.287330  7.082830
92   1  0.7755 13.169600  1.504210 15.511100
93   1  0.6138 10.448900 12.776100 10.981200
94   1  0.7263  7.621760  3.951230 21.751400
95   1  0.6984  4.450700 16.830500  0.713408
96   1  0.6772 10.399000  0.412348 17.781400
97   1  0.6524 14.336900 22.040300  5.749480
98   1  0.8018 11.915600  1.506860 21.308900
99   1  0.7215  1.270770 16.903200  8.356710
100  1  0.7517  2.185600 18.072200  3.271130
101  1  0.6128 10.760400  3.985250  4.294410
102  1  0.8388  6.618200  0.570481  5.461830
103  1  0.7282  3.559930 17.192400 12.255600
104  1  0.6449  9.447040 21.734200 24.009600
105  1  0.8061 12.699100 18.076900  4.473170
106  1  0.8337 14.926700  8.201740 23.290300
107  1  0.5007  3.789030  3.037940 14.145100
108  1  0.6391 13.788700 21.252700  2.119920
109  1  0.6084 14.347700  4.628710 14.610800
110  1  0.6935 15.922200  4.512340 23.281100
111  1  0.8166 16.103200 16.990800  4.652720
112  1  0.6408 15.278900 19.271700  9.205190
113  1  0.6080  4.287270  2.956480  0.029608
114  1  0.8085  9.137200 15.215600 13.858600
115  1  0.6628  4.383320 10.648200  5.274870
116  1  0.8039  2.124280 11.939600 11.640400
117  1  0.4712  0.100703 22.463200  2.865450
118  1  0.6934  4.060450 20.661900 18.326900
119  1  0.6268  7.654970 14.841300  6.583330
120  1  0.5844  9.435110  8.256380  5.736310
121  1  0.4961  9.284980  2.288130  1.329380
122  1  0.7546  0.255582  1.167760 14.440100
123  1  0.7236  8.224350 12.336800 -0.312582
124  1  0.4626  6.844100 13.531500  9.591750
125  1  0.7223  9.926720  7.554110 21.442200
126  1  0.7818  9.458560  6.754130 10.970200
127  1  0.7171  4.385680 15.607500  6.761070
128  1  0.6691  1.052400  8.824040  8.730790
129  2 -0.6555  0.261641  6.895390 11.505100
130  2  0.0636 15.630700 21.003600 18.407500
131  2 -0.5543 11.584100  9.716700 10.950900
132  2 -0.7919  2.526340 14.037000  7.520800
133  2 -0.7171  9.560840  6.309590  7.755520
134  2 -0.6291  3.563690 22.273500  6.553990
135  2 -0.6493  3.562270 14.382100 10.743900
136  2 -0.6502  4.983830 15.132400 22.888100
137  2 -0.8269  8.572620  0.838572 10.988700
138  2 -0.4041 13.723100  5.668980 21.901800
139  2 -0.3742  1.077530 23.257300 17.875700
140  2 -0.4390 14.085700 18.936400 11.676300
141  2 -0.6303  7.442760  2.655650 18.916500
142  2 -0.4880  3.112880  8.312050 17.167200
143  2 -0.0384 12.575500 19.141200 20.339100
144  2  0.0482 14.871000 17.036300 17.132800
145  2 -0.5746  9.727240 10.309400 22.850000
146  2 -0.2110  9.649750 14.228200 20.300300
147  2 -0.5096  8.128780 16.370400 16.405500
148  2 -0.3153 15.294100 22.059500 15.241800
149  2 -0.6267  2.800210  3.063810 22.170600
150  2 -0.0473 11.251600  8.548090 14.505100
151  2 -0.6072  5.112510  0.819645  2.825730
152  2 -0.0310 13.301600 15.287700 20.484600
153  2  0.0033 12.434000 10.451000 20.028200
154  2 -0.6323  4.004470 -0.530675 11.160700
155  2 -0.5856 12.445800  6.765300  9.144960
156  2  0.0141 11.098400 10.039600 15.919300
157  2 -0.4159 14.702900 11.812500  6.739820
158  2 -0.7973  6.333640 16.201100 13.490700
159  2 -0.7941  3.802300 22.441100 24.291200
160  2 -0.0865 12.766500 11.755100 24.400900
161  2 -0.3304 13.995200 10.228600 14.288200
162  2 -0.3707  0.617923 15.527800  2.845820
163  2 -0.6309  4.218920 19.477300 13.557500
164  2 -0.0897 10.875600 15.925700 23.851900
165  2 -0.5915 16.273000 15.064200  6.137310
166  2 -0.5243  4.279310 13.148000 17.505400
167  2 -0.7982  5.968260 18.786900 17.710200
168  2  0.0413 14.895900 17.332600 21.311200
169  2 -0.7207  4.082100  8.245140  3.845170
170  2  0.0143 14.780900 12.660400 20.265400
171  2 -0.5319 11.694700  7.625460 23.803100
172  2 -0.1520 13.677900 10.079000 21.521900
173  2 -0.0675 16.329200 11.919000 15.265600
174  2 -0.3533  2.815870 14.098500  0.922543
175  2 -0.4020  2.910280 15.937200 19.304800
176  2 -0.0001 12.778100 18.606100 14.911600
177  2 -0.4796 14.419900  2.539040 22.042300
178  2 -0.0581  1.160660 16.098000 22.146600
179  2 -0.0045 12.710300 13.875800 17.555700
180  2 -0.3729 14.203500  9.250710  3.409190
181  2 -0.5113  7.416960 17.114600  0.480982
182  2 -0.6136 13.743400  1.119820 12.591800
183  2 -0.9457  8.154850 14.009500 11.607900
184  2 -0.4043  3.083150 11.757000 20.734200
185  2 -0.7314  9.930350 22.256000  7.423950
186  2 -0.6670 15.366900  2.377170 16.530600
187  2  0.0087 17.284300 13.065700 21.865800
188  2  0.0115  0.638385 12.444200 18.124500
189  2 -0.5261  1.333870  4.126970  6.879210
190  2  0.0479 14.987900 14.295200  0.326947
191  2 -0.4867 12.860400 21.245900 23.799200
192  2 -0.1308 16.224800 13.145200 13.348600
193  2 -0.7194 16.580400 19.383100  3.689450
194  2 -0.8965  5.326530  7.043210 14.090300
195  2 -0.6771  0.581959 -0.059278  8.036280
196  2 -0.6058 10.733600  3.475090 17.889800
197  2 -0.1185 13.905200 14.099500  3.101240
198  2 -0.6570 14.914900  6.541350 16.640100
199  2 -0.7935  6.711790  4.027770 11.473300
200  2 -0.7641  1.822460  3.367460 17.175300
201  2 -0.6527  7.623400 10.441100 10.727700
202  2 -0.8004  8.445720  6.087150 23.344300
203  2 -0.7507  5.559050 13.278700  5.691340
204  2 -0.0827 11.385300 17.647700 19.119100
205  2 -0.5286  7.635940 20.372800 11.942100
206  2 -0.6130  0.698496  9.872900 11.802900
207  2 -0.0230 -0.339684 17.439900 18.475000
208  2 -0.8105  7.068370 20.268600  0.791345
209  2  0.0610 16.719900 15.182800 23.597000
210  2 -0.3640  2.892600 14.696700 14.602900
211  2 -0.8221  2.246250 17.092600  5.738720
212  2 -0.0181 15.885000 11.404500  2.579800
213  2 -0.0371 14.949400 21.776400 19.910100
214  2 -0.8596 11.719300  2.266100 -0.051326
215  2 -0.0858 12.714300 15.741400 13.290900
216  2 -0.5911  4.605520 10.357700 11.718800
217  2 -0.4509 16.267700 12.400000  9.575610
218  2 -0.6001  4.974310  1.507150 21.127000
219  2 -0.5281  2.655150 11.598300  3.270030
220  2 -0.0070 11.666500 17.417700 22.548600
221  2 -0.6923 16.160400  1.251080  5.016470
222  2 -0.6617  4.726000  5.454310 20.224200
223  2 -0.6182  3.558850  6.053080  8.342850
224  2 -0.6636  9.860340  5.704780 13.579200
225  2 -0.4855  0.177975  7.921910  6.468620
226  2 -0.4128 12.938800  6.579730 12.616800
227  2 -0.7091  7.551480 20.937400  4.821200
228  2 -0.3246 11.456600  6.577920 17.528700
229  2 -0.1974  0.413059 18.342400 13.663300
230  2 -0.7202  5.181620 23.047900 17.450200
231  2 -0.6639  0.898661 22.345100 12.827100
232  2 -0.3888  1.978930 19.285800 16.570200
233  2 -0.7522 11.676600  9.998610  5.437970
234  2 -0.4664  1.590780  7.917330 21.891800
235  2 -0.0241 12.680800 13.232300 22.736200
236  2 -0.3343 10.386800 17.428000  2.829020
237  2 -0.7264  5.025150  6.807150  1.108390
238  2 -0.6518  8.116410  8.968430 15.063500
239  2 -0.3109 13.368100 18.493100  1.655370
240  2  0.0400  0.019254 16.606400 14.699100
241  2 -0.5821 15.027200  8.994600  9.324040
242  2 -0.3399 16.126200 15.868800 10.993900
243  2 -0.4502  1.682690  5.961090  4.037630
244  2 -0.2311 10.327700 13.496400  1.453270
245  2 -0.6661  9.321980  1.810920  5.775110
246  2 -0.1881  0.183190 20.538800 23.277200
247  2 -0.7415  8.232610  0.155534  2.362600
248  2 -0.6740  6.524840 17.615600  6.472340
249  2 -0.6867  7.328370  4.973090  4.569810
250  2 -0.7005  6.723920 10.634100  2.586100
251  2 -0.3703  9.879910 18.995900 14.947200
252  2 -0.2519  1.228000 20.296500 21.203100
253  2 -0.6734 13.212000  2.461620  9.054330
254  2 -0.6462 16.466100  5.109010 20.331400
255  2 -0.6669 12.926100  0.393714  3.676350
256  2 -0.2662 10.357400 11.363800 18.133300
257  2 -0.4613 12.970200  1.128670 18.653500
258  2 -0.0138 13.855600  9.118180 17.688900
259  2 -0.8752  2.775020 20.896600  2.748280
260  2  0.0302 -0.057557 14.952500 16.202300
261  2 -0.5954 13.032600 15.368700  6.435900
262  2 -0.6836 11.821600  6.397790  4.596060
263  2 -0.8581  5.647000 20.740100 20.713400
264  2 -0.6334  6.685450  6.868550  9.837520
265  2 -0.7560 12.057600 13.031900  8.679320
266  2 -0.7662  5.779180  9.714280 23.754900
267  2 -0.5329 13.239400  3.446830  5.830100
268  2 -0.0588 12.988800 19.635900 17.265700
269  2  0.0224 14.314600 11.137600 17.614900
270  2 -0.5448  4.843080 17.854200  9.348030
271  2 -0.6304  1.780480  5.809090 14.558800
272  2 -0.5777  9.255280 22.201100 20.035600
273  2  0.0472 14.503200 17.674800 23.457300
274  2 -0.4747  4.348700  3.534690  5.456020
275  2 -0.6370  0.214684  3.332780 12.504200
276  2 -0.3829  7.154400 14.199100  2.405180
277  2 -0.9009 10.720600  1.156540 15.087600
278  2 -0.6949 14.904500  2.289510  1.639880
279  2  0.0073 13.870300 13.862300 15.792100
280  2 -0.5744 11.207400 16.831600 11.215400
281  2 -0.6913  8.428820  1.132610 22.872900
282  2 -0.7142 14.209200 19.241900  6.507270
283  2 -0.6927  8.655710 18.996900  8.982440
284  2 -0.8171  7.759630 10.534100  6.316010
285  2 -0.6182 11.340900 21.856800 12.370700
286  2 -0.4446  8.929660 18.986900 22.351400
287  2 -0.5709  6.444470  1.789670  7.701210
288  2  0.0078 16.632500 10.987100 19.019400
289  2 -0.7049 15.073800  6.131870  0.586803
290  2 -0.4119 17.160400  0.666031 21.850000
291  2 -0.7285  1.411670 19.497800  8.227990
292  2 -0.0322 11.894400 16.201800 16.422800
293  2 -0.5527 10.528800  4.095020 10.526100
294  2 -0.5260 10.506800  4.540730 21.209700
295  2 -0.4015  0.748734 10.371400  4.872630
296  2 -0.6200  7.113920 16.539800 20.273800
297  2 -0.7639  9.459660  7.041870  2.435060
298  2 -0.5971  9.574380 13.575000  4.908940
299  2 -0.6008  3.294870  2.796720 10.186400
300  2 -0.4526  2.919320 10.977100 15.111200
301  2 -0.3184 14.216900  5.593750  4.005690
302  2 -0.0362 15.428500 14.966400 19.283100
303  2 -0.6213  9.834540 16.721300  5.875870
304  2 -0.8131  6.930260 12.616200 21.848300
305  2 -0.7863  2.049640  3.712850  1.477260
306  2 -0.2261 17.343800  7.934170 18.950400
307  2  0.0363 14.396300 15.959000 12.408100
308  2 -0.5262  1.878430 17.901200  0.572266
309  2 -0.7671  5.605460  0.924225 13.710900
310  2 -0.7688  5.885690  8.633210 19.263000
311  2 -0.6886  4.228120  9.672480  8.511040
312  2 -0.7593 11.909000 20.544400  4.172140
313  2 -0.5045  9.794720 12.718700 14.716900
314  2 -0.7971  6.331940 11.996300 15.298800
315  2 -0.6600 14.220000 22.216500  9.514120
316  2 -0.7186  5.126940 16.512500  3.117250
317  2 -0.0295 15.850800 11.733600 22.451700
318  2 -0.4886  0.059547  8.973890  0.413169
319  2 -0.4191 15.153300  5.783630  7.336030
320  2  0.0018  0.317350 12.161500  0.981775

