Generated by pymatgen.io.lammps.data.LammpsData

320  atoms

  2  atom types

0.000000 24.637781  xlo xhi
0.000000 17.058433  ylo yhi
0.000000 27.370788  zlo zhi

Masses

1  208.9804
2   78.9600

Atoms

1    1  0.5787 -0.510362  2.796910  1.268900
2    1  0.7355  1.568730 17.927600 16.940600
3    1  0.4960  4.164600  8.290570  4.814880
4    1  0.7545 -2.016490  8.384100 14.527800
5    1  0.8204 12.786700  4.337270  4.287030
6    1  0.6839  7.057040 15.603000 11.899100
7    1  0.7659 19.229000 14.744200  3.190970
8    1  0.6674  7.773550  7.061770 16.026800
9    1  0.7307  5.582080  6.538910 10.415100
10   1  0.6067  0.873200 16.444000 24.426200
11   1  0.6567  2.611690 14.049100  9.052820
12   1  0.7457  3.923040 17.009500 22.912100
13   1  0.6961 14.117700  6.491560 17.891900
14   1  0.7122 15.467600  4.873450 26.985400
15   1  0.5672 15.886700 15.010400 12.316200
16   1  0.7553 17.581000 13.298600 26.492000
17   1  0.8172  4.870250 17.429800  5.751740
18   1  0.7114  5.721940  7.422710 18.514000
19   1  0.7916  4.224280 16.971400 -0.066105
20   1  0.5721  4.726730 13.256700 21.808700
21   1  0.7532 17.378900  4.644580  7.820980
22   1  0.6451 17.767800  1.821490 19.739300
23   1  0.7701 18.646700 10.478600  2.606910
24   1  0.8551 17.022700  9.626270 19.933000
25   1  0.7218 -0.661631 16.281700 12.595100
26   1  0.5851 20.744600  2.488360 23.689400
27   1  0.7092 -1.870450 10.215200 11.071500
28   1  0.6059 -1.274560  7.419960 22.927600
29   1  0.4984 13.404300 16.108300 10.908000
30   1  0.7376 10.442000 17.555700 18.989400
31   1  0.4963  4.441650 16.179200 11.012300
32   1  0.6603 11.479700  8.693880 17.757000
33   1  0.7934  2.269920  6.244560  7.115410
34   1  0.7391 19.514500  5.464550 18.186300
35   1  0.7310 -1.889050 14.546700  3.158190
36   1  0.7529 -2.008360 11.941500 15.500400
37   1  0.7461 13.436700  6.932610 10.498100
38   1  0.7589  4.924730  2.654050 16.970400
39   1  0.5301  7.475250  2.363430  2.424190
40   1  0.7194  7.621720 13.717800 16.066400
41   1  0.5780 20.721600  4.702450  8.736180
42   1  0.7537  1.288550  4.510210 20.558100
43   1  0.7272 18.722000 11.932800 11.520600
44   1  0.8428 -2.544560 13.333900 21.685100
45   1  0.7401 11.453600  5.823800 13.803400
46   1  0.2795  6.800920  5.863380  1.831740
47   1  0.7975 10.809700 13.685700 12.756400
48   1  0.7466  9.620340 10.304900 26.121000
49   1  0.7896  2.022260 13.430200  4.899880
50   1  0.7061  7.469290  3.034510 20.562400
51   1  0.6252  2.634060  6.715750  1.118920
52   1  0.8091  2.521030 10.015900 15.394500
53   1  0.7183 19.022400 13.774700  6.736860
54   1  0.7758 13.873700  7.505960 21.651500
55   1  0.7510 22.137400 10.948000  6.211770
56   1  0.8955  0.174059  6.951390 17.673500
57   1  0.6701  5.518910  2.057820  8.892990
58   1  0.5129  8.366390  4.186680 24.013400
59   1  0.6971  3.560560  6.758690 12.983300
60   1  0.7630  6.086480 14.079900 25.348400
61   1  0.5965 17.511300 17.810600  8.734230
62   1  0.6630 19.333100 16.398100 22.138800
63   1  0.7771 13.528200 13.237100  8.451500
64   1  0.7682 16.448400 12.456600 22.913900
65   1  0.6027  1.982140  8.360110 24.614800
66   1  0.7399  0.140975  4.724750 13.622300
67   1  0.4538  5.058400  3.994870 26.759400
68   1  0.5980  1.656200 13.856100 13.378700
69   1  0.5012  7.015130  7.316750 26.467400
70   1  0.7301  9.820250  3.963670 16.715000
71   1  0.6654 14.290600 15.004800  0.686669
72   1  0.7000 11.775300 16.948700 15.202500
73   1  0.6700  6.247840 10.920900 24.057800
74   1  0.5272 11.796300  1.620980 12.121000
75   1  0.8503  8.309790 16.659700 -0.072619
76   1  0.7285  5.336550 12.756800  6.513600
77   1  0.6425 -0.293644  6.298830 26.345700
78   1  0.7076 20.343800  4.313830 14.209100
79   1  0.6317 -2.620120 15.321100 25.357900
80   1  0.7037 -2.603220  1.741680 16.514500
81   1  0.6421  0.163610  2.622560 24.677800
82   1  0.6411  2.597000  1.669340 13.255500
83   1  0.6987  3.947400 11.053300  1.011530
84   1  0.6938  4.438200 15.376700 15.597800
85   1  0.6485 12.592500  7.716600 26.153400
86   1  0.6766 14.011300  2.818480 19.352100
87   1  0.6092 12.216700 12.493400  0.099625
88   1  0.7895 14.636600 10.230900 12.774000
89   1  0.6007 16.034500  1.969400 22.573400
90   1  0.6836  6.324150  3.844360 12.929200
91   1  0.7600  9.525630 10.473000 21.841900
92   1  0.8955  6.826170 10.765200 11.121400
93   1  0.5761 21.515100  4.830470 26.595100
94   1  0.6012 18.130500  2.064610 12.390500
95   1  0.7154 21.402600 11.502000 25.999300
96   1  0.7331 19.008200  7.433290 11.277700
97   1  0.6943  0.738305  9.846460  7.613940
98   1  0.7768  3.719520  4.753660 23.437000
99   1  0.6724  0.272339 17.755000  4.387050
100  1  0.7283 -1.337900 17.772000 20.173900
101  1  0.6432 11.169800  9.328250  8.719050
102  1  0.6508 17.580000  6.131300 22.033700
103  1  0.7712 13.881100  2.417970  8.142300
104  1  0.6340 11.314500  3.155880 26.248600
105  1  0.7278 10.039800  4.092530 10.641400
106  1  0.7077  4.857820 11.319000 18.860400
107  1  0.7233  8.699950 16.935500  9.261860
108  1  0.6658  6.525660 15.925400 19.797100
109  1  0.6103 17.476800  9.216700  8.668340
110  1  0.6531 19.394800  8.771000 23.313800
111  1  0.6340 21.042600 17.375900  8.801310
112  1  0.8854 16.026400  5.660700 13.751600
113  1  0.7552 -0.286038  6.059820 10.442800
114  1  0.7815  1.679930 13.397600  0.621893
115  1  0.6549  1.702510 10.347100 11.437200
116  1  0.6420  3.553370  7.876470 22.116600
117  1  0.7092  9.622480  2.225790  6.991020
118  1  0.6368 10.580800 14.818400 21.966200
119  1  0.6516 16.119100 10.962500  5.578190
120  1  0.5892 12.514000 13.281600 23.737100
121  1  0.5029  4.782350  4.786460  3.563070
122  1  0.5713 11.323200  3.833690 22.572200
123  1  0.6081  4.439960  9.865920  8.177420
124  1  0.6866 12.385500 12.290600 19.309500
125  1  0.6142 -1.968100  3.680120  5.118280
126  1  0.5800 21.547400  4.926210 21.167700
127  1  0.6793 -1.935630 14.147800  8.927710
128  1  0.6694 16.600500 16.513300 24.912700
129  2 -0.6512  3.927020  4.511540 11.194100
130  2 -0.4852  8.512840  5.985080 19.066200
131  2 -0.6912  6.318400 15.860100  8.681620
132  2 -0.4697  5.709330  2.122910 23.363400
133  2 -0.6388 18.553900  4.872220 12.096600
134  2 -0.5062 20.737900 11.052000 23.202300
135  2 -0.6215 20.038500 10.383400  8.846360
136  2 -0.6175 18.879600 13.727300 24.042900
137  2 -0.5621 18.973000  2.765460  6.818460
138  2 -0.4654  4.348710  1.666840 19.784000
139  2 -0.6005  5.149250 12.258000  9.604720
140  2 -0.5633  3.627340 12.007700 24.241100
141  2 -0.5727 16.355900  6.844340 10.045800
142  2 -0.5254 12.335200 10.287700 21.946600
143  2 -0.4599 14.821800 16.080500  8.179170
144  2 -0.4405 13.721300 16.825600 25.949600
145  2 -0.1715 15.528200  4.393390  3.045090
146  2 -0.4806  3.360690  8.556730 19.523500
147  2 -0.4884 12.516500  4.275240  0.943116
148  2 -0.5555  2.319470 18.222300 10.710500
149  2 -0.1869  8.173850 12.036800  6.657630
150  2  0.0228 15.069100 14.467800 16.954700
151  2 -0.2909 12.684200 11.379100  5.558110
152  2 -0.4090  8.403640  9.806760 18.624400
153  2 -0.7506  4.529360  8.235020 25.931000
154  2 -0.3716 -0.258715  9.804560 16.950800
155  2 -0.3512  0.092519 10.269000  5.016180
156  2 -0.5200  5.378410 10.495200 16.520800
157  2 -0.2720  8.788150 12.550800  9.476970
158  2 -0.3789 10.282300  9.376770 15.383900
159  2 -0.1086 21.194100  7.052410  2.085550
160  2 -0.6108  2.821850  3.590260 15.272700
161  2 -0.5994  2.377900  6.410440  3.980810
162  2 -0.5981  2.588460  1.464680 25.855900
163  2 -0.5384  6.891240  9.030970  9.083050
164  2 -0.5574  6.008960  9.650770 21.509400
165  2 -0.3751 -2.523870 16.314800 14.521700
166  2 -0.6213 19.789000 17.321000 24.787400
167  2 -0.7091  0.117204 12.136000  9.814330
168  2 -0.2158 18.515100  5.307290  0.809709
169  2 -0.6104 21.460600  2.333200 10.626500
170  2 -0.5202  4.421890  1.997680  3.111640
171  2 -0.7774  1.880790  7.849110  9.290110
172  2 -0.4731  4.863610  4.857280 21.134900
173  2 -0.5034 12.237300  2.505080 16.338100
174  2 -0.5087 13.204300 18.476500 22.602700
175  2 -0.4608 16.146900 13.548300  5.962000
176  2 -0.5452 12.361700 10.595800 24.974900
177  2 -0.3930  2.083400 10.159300  2.543420
178  2 -0.8390 -1.333490  4.451770 23.393000
179  2 -0.0339  8.305410 10.319500  3.999330
180  2 -0.5236 18.629100 10.810800 -0.552915
181  2 -0.1673  8.454980  8.359800  5.113720
182  2 -0.6488 10.878200  3.407400 19.295300
183  2 -0.6413 21.832100  8.047850 25.277700
184  2 -0.1255 21.189200 10.997500 18.335000
185  2 -0.4303 11.134800  9.348800  0.614977
186  2 -0.5780  4.466760  9.760140 12.109400
187  2 -0.7629  7.290410  2.453400 26.572700
188  2 -0.4132  8.876810 16.960100 14.638900
189  2 -0.0401 17.627800  2.404320  0.699235
190  2 -0.2622 13.044900 12.093700 16.765900
191  2 -0.0012 17.030300 17.841100  4.075140
192  2 -0.7067  9.210710 12.897400 20.397300
193  2 -0.0379  8.308110 12.662000  1.901670
194  2 -0.5349 -0.344115  3.308920 17.986500
195  2 -0.3166 -0.050467 17.125700  8.020810
196  2 -0.4178 14.316600 14.449400 21.010900
197  2 -0.6752 13.709500  4.808470 24.766300
198  2 -0.7110 15.369500  5.214920 20.606100
199  2 -0.4401 11.478000  2.062740  5.385440
200  2 -0.6101  9.554820 13.228700 25.432700
201  2 -0.0888 -1.477650  7.104350  2.581330
202  2 -0.6120  7.048310  4.612960 15.780600
203  2 -0.1081  9.335220 16.210000  4.528010
204  2 -0.6665  5.094270 14.447900 18.298000
205  2 -0.5876 21.800600  6.567760 11.896800
206  2 -0.0356 19.366400 11.672900 17.944000
207  2 -0.0117 15.033400 16.607300  4.816630
208  2 -0.4795 19.360500  8.570300 20.154000
209  2 -0.6784  0.823988  7.397390 13.024400
210  2 -0.4365  0.736816  8.440890  0.161081
211  2 -0.6970  1.335420 16.216600 14.900200
212  2 -0.5663  0.166681 15.800100 27.876700
213  2 -0.5920  9.841180  3.471880 13.677200
214  2 -0.3147  6.437460 16.049100  3.912490
215  2  0.0034 18.860000 14.042800 15.695600
216  2 -0.0642 12.765000 14.825300  4.699790
217  2 -0.6025 -0.184553  2.015490 13.880600
218  2 -0.6990  1.550790  4.526780 27.389800
219  2 -0.7199 -0.262818 10.806600 13.761100
220  2 -0.4894  0.090767 12.975500  2.734310
221  2 -0.5382  7.838420  1.205610 18.027800
222  2 -0.6448 16.333300  9.018320 22.443600
223  2 -0.4725 10.455000 14.873300 17.231200
224  2 -0.1653  9.680120 13.983800  2.025120
225  2 -0.4152  2.755420 15.778500  3.144190
226  2 -0.5856 16.910500 16.417600 21.299300
227  2 -0.4637 -0.676911  4.546030  7.536800
228  2 -0.6769 15.158300 13.367500 25.434000
229  2 -0.5571 18.156200  3.826260 24.405100
230  2 -0.7076  9.650000 15.582700 11.029100
231  2  0.0596 18.302100  2.916290  2.722830
232  2 -0.6380 13.238800 13.327900 11.188400
233  2 -0.5207 11.467300  4.381410  8.019210
234  2 -0.4303  8.361770 12.872700 13.480200
235  2 -0.7661  1.441230  5.648220 23.931300
236  2 -0.5501 -1.767460  8.111290  9.047830
237  2 -0.4367  9.484090  6.160510  2.117190
238  2 -0.0202 17.221200 10.857600 16.416300
239  2 -0.4967  0.843658  3.164540  4.293370
240  2 -0.3266 19.420300  6.662970 15.579500
241  2 -0.5943  4.791500  6.544690  7.104840
242  2 -0.1491 -0.989000 10.629700 20.932400
243  2 -0.5124  2.947950 15.756800  6.757580
244  2 -0.6061  3.228370 14.829200 25.883000
245  2 -0.6306 14.153100  9.667380  9.553150
246  2 -0.8258 18.847200  4.195040 20.992600
247  2 -0.6839 19.317800 15.052100  9.048940
248  2 -0.1687 18.636400 17.227500 16.769900
249  2 -0.2745  3.291300  2.394140  7.268860
250  2 -0.5085  6.878120  6.762250 23.855900
251  2 -0.7472  5.004400 14.408700 13.040800
252  2 -0.6734  6.252350 15.553300 22.988700
253  2 -0.1452 14.261800 18.069000  1.910050
254  2 -0.6979 21.443600  1.966800 19.180000
255  2 -0.5494 16.234000 12.166400 10.098800
256  2 -0.3563 10.239400 16.598600 25.300800
257  2 -0.1329 12.378400  8.132110  3.933990
258  2 -0.4830 11.502900  6.684060 20.713600
259  2 -0.5917  6.593890 11.191900 26.577700
260  2 -0.1342 -0.114088 12.876800 17.826500
261  2 -0.4500 17.326600 15.904000  0.356814
262  2 -0.4919 18.767700  3.635840 16.185400
263  2 -0.5352 20.196300 16.037500  5.660010
264  2 -0.5698 20.436000  9.697060 12.737300
265  2 -0.5488  6.466840  2.922000  5.918960
266  2 -0.3915  2.970780  5.269900 18.376400
267  2 -0.4977 -0.832398 13.075700 24.712000
268  2 -0.2853 15.751500 17.355400 14.823800
269  2 -0.5102  9.250510  8.654450 23.978000
270  2 -0.6230 13.246900  7.164920 15.111000
271  2 -0.1889 15.876500  6.445810  3.642800
272  2 -0.1403 17.535900  9.065530 17.121800
273  2 -0.4732 21.004500 16.015700  1.310220
274  2 -0.5716  1.998550  2.619380 22.440800
275  2 -0.8011  2.521170 12.023100  7.264400
276  2 -0.3426 20.839200 14.820300 19.635800
277  2 -0.3090 11.141600 10.165300 12.376200
278  2 -0.3715 15.111300  3.295710 14.371500
279  2 -0.4147 13.155400 14.227800 14.407900
280  2 -0.5863  6.358050  6.860290 13.023600
281  2 -0.2427 22.353400 10.888100  1.409010
282  2 -0.4799  0.419747  7.661470 20.528800
283  2 -0.5721 -1.988350 13.912300 11.567500
284  2 -0.2369 19.766700 14.584000 13.762200
285  2 -0.0858 12.053900 15.607500  6.706820
286  2 -0.4249 14.338700  5.762200  7.738910
287  2  0.0051  9.430990 14.504200  5.823410
288  2 -0.5356  9.337610 17.294100 21.698300
289  2 -0.6894 11.761800 17.874000  9.307100
290  2 -0.4168  1.286990 16.478600 19.364600
291  2 -0.5666 10.081600  6.730880 11.814800
292  2 -0.3095  1.747330 13.791300 21.909500
293  2 -0.2934 15.449300  2.628860  5.889130
294  2  0.0465 17.577600 14.223400 18.285300
295  2 -0.5263 18.807600  9.765440  5.249630
296  2 -0.3522 22.103300  7.372010 18.717900
297  2 -0.5659 -1.168870 14.469700  5.830760
298  2 -0.7319 22.663500 16.269900 22.461000
299  2 -0.2406 20.153100  6.592860  5.710290
300  2 -0.6139 -1.561730  5.845790 15.720600
301  2 -0.5743 13.347400  4.696950 11.817300
302  2 -0.3285 13.770500 17.187200 18.462700
303  2 -0.5976 16.848600 12.830500  2.353780
304  2 -0.6371 14.361500  9.210790 19.360100
305  2 -0.8013  7.962680  2.733370  9.740950
306  2 -0.5041  4.690110 12.315300  3.510740
307  2 -0.4502  2.531900 13.207300 15.906900
308  2 -0.5945  6.270780 15.282600  0.112062
309  2 -0.4172 16.257100  6.255760 17.026100
310  2 -0.2867 15.248600 10.460100 27.296200
311  2 -0.3411 16.697800 12.491500 13.594400
312  2 -0.3585 18.239800 12.167000 20.930400
313  2 -0.5011  2.468140  7.849680 16.370300
314  2 -0.4976 21.502200  2.587370  0.827298
315  2 -0.5383  6.062300 17.934800 14.774500
316  2 -0.3735 10.421500 18.493400  1.513330
317  2 -0.4216 16.652800  8.435210 13.605500
318  2 -0.1037 18.724500  5.445370  4.855420
319  2 -0.6641 16.453400  3.022280 10.050300
320  2 -0.6774 20.619200 12.583900  4.318990

