Generated by pymatgen.io.lammps.data.LammpsData

80  atoms

 2  atom types

0.000000 12.125766  xlo xhi
0.000000 12.296661  ylo yhi
0.000000 14.084790  zlo zhi

Masses

1  106.42
2   78.96

Atoms

1   1  8.074130  4.761460  4.650650
2   1  1.345750  7.712170  8.905130
3   1  4.633060 11.860500 11.407500
4   1  3.985930  9.352980 13.883800
5   1  7.419080  1.012940  7.942580
6   1 -0.026846  5.727920  1.546330
7   1  4.709460  2.576800 14.023500
8   1  3.097090 -0.024389  5.186040
9   1  2.407100  0.951221 11.012600
10  1  6.968220  9.252490 11.056300
11  1  7.101130 10.091900  4.233950
12  1  9.962800  4.076850  8.292400
13  1  2.907020  5.987600  1.354530
14  1  6.475350 10.969300  9.421290
15  1  3.522680 10.905000  2.308650
16  1 11.042500  8.894780  3.390350
17  1  9.877990  2.626250  5.420390
18  1  5.968310 10.331800  1.628190
19  1  9.682360  9.938150  9.696490
20  1  6.337380  0.165097  3.164320
21  1  8.496840  1.961070  1.297460
22  1  3.067560 10.856700  8.407520
23  1  1.407820  4.072680 11.055700
24  1 11.479400  6.397600  7.745830
25  1 10.581900  5.001110 12.145100
26  1 10.215700 10.629300  6.540410
27  1  0.506480 10.417800 13.125200
28  1  3.306430  3.681570  5.882570
29  1  3.639760  1.750540  3.117430
30  1  1.447050  3.685900  7.908730
31  1  0.204404  7.407080 12.253800
32  1  0.404635 11.963300  4.916390
33  2  1.525620  1.560800  1.903320
34  2 11.533000 11.428800  1.108010
35  2 11.101700  4.603380  4.872310
36  2  4.437370  3.980030 12.452000
37  2 -0.093996  1.666090  4.015820
38  2  1.962990 11.915800  0.906213
39  2  0.876139  4.566420 13.513000
40  2  4.694130  9.766800 10.513500
41  2  2.529740  7.028030 13.365000
42  2  7.949700  4.347400  1.021530
43  2  6.270660  7.059590 10.249000
44  2  3.618640  8.623340  6.969000
45  2  1.581060  6.641650  6.638390
46  2  4.500620 10.093700  5.539020
47  2  7.218360  5.535910 11.489600
48  2  4.703930  0.453709  1.153500
49  2  3.410520  5.632070 10.389200
50  2 11.395500  2.215870  8.882770
51  2 10.613600  7.409620 10.033000
52  2 12.204200  8.967990  5.461490
53  2  4.149240  4.626830  2.813900
54  2  8.007220 12.170800  0.115012
55  2  1.056960 10.041400  7.975260
56  2  2.367170  8.352440  4.675830
57  2  8.207930 11.139800  8.119080
58  2  9.302040  5.449430 10.011700
59  2  5.906310  7.804430  0.849367
60  2  3.840080  5.916220  5.647190
61  2  8.525300  8.375290  5.985660
62  2  7.932410  0.275908  5.736250
63  2 10.856900 11.156300 11.296100
64  2  6.031760  6.021910  4.070760
65  2  4.470710  1.566300  9.700480
66  2  1.488700  9.031390  2.636810
67  2  8.050330  6.240370  6.607980
68  2  4.799990  1.749540  5.464130
69  2  0.862809  4.056190  3.017460
70  2  8.333110  3.268740  7.446010
71  2  1.245180  9.696650 10.965400
72  2  7.280540  2.653320 11.273100
73  2 10.998300  6.662950 14.018200
74  2  9.559090  3.811250  2.730980
75  2  1.249100  1.832220  6.426030
76  2  9.764640  0.906381 13.279200
77  2  2.350330  1.595270  8.704200
78  2  9.695610  8.982020 11.615600
79  2  8.293090  8.061720  3.455780
80  2 12.200200  2.553630 11.913200

