Generated by pymatgen.io.lammps.data.LammpsData

360  atoms

  2  atom types

0.000000 16.871067  xlo xhi
0.000000 22.058404  ylo yhi
0.000000 29.928687  zlo zhi

Masses

1  208.9804
2   78.9600

Atoms

1    1  0.7142  2.140070 13.349500 21.510400
2    1  0.7089  4.481140 16.485200 21.632600
3    1  0.7566  2.341390  5.820430 21.680300
4    1  0.7818  4.378790  9.516650 21.280500
5    1  0.7298  6.405080 13.313700 21.354700
6    1  0.7823  8.548610 16.968500 21.334900
7    1  0.7016  2.378730 20.582800 21.429500
8    1  0.7423  4.500080  2.090590 21.434600
9    1  0.8023  6.393260  5.561130 21.351300
10   1  0.7483  8.389400  9.526340 21.257800
11   1  0.7511 10.722200 13.620000 21.709800
12   1  0.7511 12.695800 16.965900 21.468500
13   1  0.7927  6.540130 20.518100 21.577300
14   1  0.8288  8.416210  1.960860 21.686900
15   1  0.7246 10.791700  5.763920 21.454700
16   1  0.7417 12.524500  9.553490 21.898500
17   1  0.7405 14.614500 13.674500 21.422300
18   1  0.8379 -0.099521 16.938200 21.518800
19   1  0.7354 10.372900 20.412800 21.586000
20   1  0.7846 12.703500  2.494120 21.382400
21   1  0.7650 15.077600  6.130780 21.786600
22   1  0.7747  0.174862  9.581650 21.568900
23   1  0.7943 15.068700 20.893100 21.539900
24   1  0.7181  0.643684  2.175900 21.500000
25   1  0.7060  2.411210 13.443400 28.335300
26   1  0.7241  4.507220 17.031300 28.279400
27   1  0.7739  2.475080  6.044670 28.200500
28   1  0.8162  4.580590  9.773020 28.332300
29   1  0.7849  6.503790 13.232900 28.162000
30   1  0.7609  8.633820 17.118700 28.429100
31   1  0.7850  2.351760 20.527600 28.005200
32   1  0.7243  4.617150  2.050660 28.405800
33   1  0.7541  6.664860  5.437640 28.330600
34   1  0.7702  8.785450  9.331220 28.202000
35   1  0.7224 10.509700 13.240300 28.205400
36   1  0.7045 13.011500 16.819400 28.634100
37   1  0.8032  6.647860 20.839500 28.189600
38   1  0.7861  8.544440  2.174150 28.344000
39   1  0.7678 10.839200  5.666940 28.194300
40   1  0.8002 12.738700  9.584690 28.424400
41   1  0.7577 14.478500 13.309100 28.526700
42   1  0.7448  0.212289 16.966200 27.793100
43   1  0.7422 10.820400 20.926400 28.415400
44   1  0.7711 13.276700  2.467030 28.549100
45   1  0.7403 14.950700  6.220080 28.186200
46   1  0.7253  0.135687  9.793170 28.042400
47   1  0.7225 14.852700 20.821600 28.149800
48   1  0.7050  0.181972  2.152080 28.287600
49   1  0.7473  2.315330 15.673100  1.644150
50   1  0.8184  4.499700 19.198500  1.926190
51   1  0.7955  2.409220  8.513250  1.732980
52   1  0.7950  4.231150 12.211400  1.725120
53   1  0.7699  6.592090 15.605000  2.008390
54   1  0.8229  8.795820 19.507900  1.684690
55   1  0.7986  2.629080  0.876566  1.862750
56   1  0.7685  4.541320  4.793170  1.584550
57   1  0.7619  6.456800  8.316350  2.136130
58   1  0.7471  8.746950 11.894800  1.713970
59   1  0.7612 10.519400 15.692300  2.102840
60   1  0.8179 13.188100 19.424500  1.816690
61   1  0.8103  6.589180  0.925249  1.645640
62   1  0.7771  9.015310  4.486930  1.851580
63   1  0.8405 10.687700  8.297820  1.764360
64   1  0.8198 12.532400 11.863800  1.570090
65   1  0.7848 14.680800 15.545100  1.877700
66   1  0.8079  0.383727 19.486200  1.701880
67   1  0.8413 10.951500  0.846700  1.817730
68   1  0.7810 12.900900  5.039130  1.798390
69   1  0.7802 15.095400  8.426320  1.737810
70   1  0.7859 -0.085207 11.999400  1.791010
71   1  0.7858 15.082400  1.306260  1.778260
72   1  0.8491 17.271700  4.731710  1.458300
73   1  0.7480  2.255530 15.475600  7.923690
74   1  0.8058  4.433940 19.359300  7.967860
75   1  0.8392  2.056840  8.216660  7.980370
76   1  0.7705  4.637100 12.041800  7.991960
77   1  0.7273  6.555060 15.679900  7.911340
78   1  0.7528  8.692780 19.706700  8.348890
79   1  0.7880  2.343780  1.003570  8.129330
80   1  0.7524  4.351410  4.828990  7.908720
81   1  0.8015  6.545560  8.227830  8.316290
82   1  0.7420  8.405970 11.715000  7.982770
83   1  0.7986 10.697600 15.241000  8.392130
84   1  0.7510 13.021900 19.252700  7.954020
85   1  0.8158  6.452640  1.417340  8.069350
86   1  0.8330  8.808830  4.428540  8.015850
87   1  0.7831 10.784800  8.292500  7.729970
88   1  0.8038 12.701300 11.894700  8.072620
89   1  0.8033 14.815200 15.463400  8.181470
90   1  0.8112  0.163168 19.154800  8.338300
91   1  0.8189 10.967100  1.036370  7.984020
92   1  0.7878 12.976400  4.714950  8.186710
93   1  0.7859 14.837500  8.209260  7.743300
94   1  0.7505  0.351523 11.832900  7.667360
95   1  0.7750 15.407100  0.861915  7.373190
96   1  0.7422  0.069887  4.601640  8.275060
97   1  0.7864  0.116671 14.642900 11.263300
98   1  0.7406  2.259100 18.225800 11.611300
99   1  0.7805  0.334491  6.963940 11.357500
100  1  0.7601  2.121360 10.660800 10.930900
101  1  0.7548  4.439360 14.737400 11.761700
102  1  0.7386  6.910010 18.301000 11.231800
103  1  0.7977  0.384536 21.664100 11.429300
104  1  0.7256  2.354010  3.177380 11.344800
105  1  0.7427  4.110600  7.060530 11.230800
106  1  0.7532  6.834770 10.772600 11.804200
107  1  0.7832  8.853510 14.162700 11.600600
108  1  0.7538 10.925100 18.287900 11.502300
109  1  0.7538  4.328760 21.621900 11.279500
110  1  0.7332  6.430640  3.309760 11.465600
111  1  0.8160  8.732080  7.003590 11.495200
112  1  0.7721 10.762900 10.655700 11.618800
113  1  0.8361 12.757200 14.283600 11.795900
114  1  0.7682 14.753300 18.402700 11.408500
115  1  0.7395  8.626610 21.988000 11.179000
116  1  0.7930 10.677800  3.467270 11.358300
117  1  0.7479 12.930900  7.069300 11.229200
118  1  0.7551 14.970300 10.574200 11.535900
119  1  0.8372 12.929500 -0.314090 11.202800
120  1  0.7689 15.093300  3.279900 11.481400
121  1  0.8691 -0.088405 14.546400 17.803200
122  1  0.7562  1.991200 18.437100 17.854900
123  1  0.7568 -0.124811  7.064290 18.248300
124  1  0.8029  1.870570 10.673800 17.774400
125  1  0.7009  4.201810 14.490000 18.012700
126  1  0.8094  6.200610 18.370200 17.846200
127  1  0.7389 -0.292646 21.715800 18.146600
128  1  0.8156  2.355990  3.658340 18.249200
129  1  0.7925  4.261670  7.159460 18.240400
130  1  0.7316  6.264820 10.599700 18.177100
131  1  0.7882  8.100390 14.591200 17.875900
132  1  0.7830 10.504000 18.182900 17.987600
133  1  0.8267  4.365020 21.743000 18.011200
134  1  0.7652  6.612750  3.223240 18.067700
135  1  0.7614  8.497210  6.838000 17.843500
136  1  0.7955 10.774900 10.923300 17.880200
137  1  0.7647 12.659600 14.622200 18.299500
138  1  0.7935 14.894400 18.329000 17.946500
139  1  0.7810  8.425620 21.585500 17.912400
140  1  0.7810 10.462600  3.313540 18.052200
141  1  0.7681 13.205000  7.348720 18.081800
142  1  0.7639 14.935400 10.957500 17.795200
143  1  0.7407 12.764000 21.746100 18.180000
144  1  0.8165 15.252100  3.522090 18.059000
145  2 -0.8513 -0.023789 14.591300 30.044600
146  2 -0.8616  2.533470 18.355300 29.845100
147  2 -0.8711  0.323939  7.223130 30.029500
148  2 -0.8657  2.333260 10.953800  0.298754
149  2 -0.9033  4.688810 14.449800 30.070200
150  2 -0.8557  6.581250 18.547900 29.885500
151  2 -0.8582 17.224800 -0.197135  0.116739
152  2 -0.8773  2.378640  3.659850 29.938900
153  2 -0.8490  4.359620  7.312000 -0.173390
154  2 -0.8403  6.423050 10.596700  0.027975
155  2 -0.8880  8.359030 14.462600 29.748400
156  2 -0.8538 10.727300 18.290900 30.286800
157  2 -0.8827  4.598630 21.710800 29.920900
158  2 -0.9252  6.642940  3.421240 30.352300
159  2 -0.8448  8.614380  6.878290 30.013200
160  2 -0.9308 10.637300 10.501700 29.890300
161  2 -0.9350 12.563200 14.292300 30.275800
162  2 -0.8726 14.876600 18.217200 29.978100
163  2 -0.9177  8.791860 22.003600 29.933300
164  2 -0.8771 10.815500  3.202810 -0.303898
165  2 -0.9034 12.710700  7.416690 29.996400
166  2 -0.9052 14.842900 10.988800  0.038575
167  2 -0.8884 12.912900 -0.151702  0.338980
168  2 -0.9079 15.048400  3.811190 30.011300
169  2 -0.3194  2.221640 15.639100 26.103100
170  2 -0.3230  4.479350 19.465100 26.365800
171  2 -0.3407  2.543780  8.767670 26.499000
172  2 -0.3799  4.157770 12.183300 26.613800
173  2 -0.2551  6.945680 15.969200 26.257700
174  2 -0.3076  8.808350 19.641500 26.497300
175  2 -0.2490  2.312600  0.863239 25.957200
176  2 -0.3642  4.780660  4.087300 26.629400
177  2 -0.2849  6.567010  8.009950 26.509700
178  2 -0.2817  8.212290 12.226600 26.183600
179  2 -0.3014 10.807800 16.019300 26.552100
180  2 -0.2664 12.716700 19.243600 26.324700
181  2 -0.3765  6.591260  1.113330 26.534900
182  2 -0.3340  8.702520  4.134450 26.500700
183  2 -0.3878 11.022500  8.671380 26.549700
184  2 -0.3453 12.721200 12.255400 26.488500
185  2 -0.2662 15.140900 15.904400 26.185300
186  2 -0.3940  0.304917 19.528100 26.400700
187  2 -0.1800 10.726800  1.034530 26.030500
188  2 -0.3629 12.866300  4.924270 26.565700
189  2 -0.2961 14.743800  8.502780 26.129200
190  2 -0.3046 -0.364647 12.277700 26.493200
191  2 -0.4176 14.477700  1.168990 26.674500
192  2 -0.3163  0.014275  4.809060 26.434300
193  2 -0.3404 -0.169527 14.718700 23.238100
194  2 -0.2653  2.386880 18.034000 23.652200
195  2 -0.4537  0.341369  7.318340 23.058100
196  2 -0.3154  2.567990 10.562000 23.283400
197  2 -0.3328  4.201530 14.502000 23.612900
198  2 -0.3363  6.640840 18.270300 23.258800
199  2 -0.3727 16.790900 21.818100 23.294100
200  2 -0.3073  2.024740  3.759270 23.631500
201  2 -0.3261  4.988180  6.867510 23.171600
202  2 -0.2911  6.367010 10.949500 23.284300
203  2 -0.3864  8.298420 14.266100 23.067400
204  2 -0.2985 10.213600 18.035600 23.487700
205  2 -0.3348  4.302190 22.013500 23.394000
206  2 -0.3676  6.497580  3.116350 23.189100
207  2 -0.3077  8.600620  7.066250 23.285700
208  2 -0.2632 10.189300 11.036900 23.642300
209  2 -0.4236 12.989000 14.863300 23.200400
210  2 -0.2840 14.724100 18.201100 23.358900
211  2 -0.3397  8.392140 21.664100 23.438500
212  2 -0.3448 10.488200  3.112600 23.110100
213  2 -0.3843 12.936800  7.001140 23.345900
214  2 -0.2639 14.674200 10.971700 23.555000
215  2 -0.2492 12.777200 22.310800 23.289600
216  2 -0.2582 15.174800  3.413090 23.328100
217  2 -0.8570  2.223420 13.092100  9.578370
218  2 -0.8353  4.351070 16.966700  9.630860
219  2 -0.9538  2.184260  5.965800  9.587790
220  2 -0.8431  4.268760  9.413540  9.379690
221  2 -0.8465  6.385430 13.104300 10.085000
222  2 -0.8505  8.713180 16.747900  9.853420
223  2 -0.9141  2.239270 20.598000  9.785240
224  2 -0.9432  4.306800  2.203520  9.711050
225  2 -0.8586  6.843490  5.999100  9.832590
226  2 -0.8722  8.669760  9.314420  9.913590
227  2 -0.8923 10.705300 12.918300  9.821820
228  2 -0.8482 12.852200 16.451600  9.782560
229  2 -0.9052  6.572360 20.902400  9.624180
230  2 -0.9151  8.753700  2.236520  9.584250
231  2 -0.8690 10.662800  5.730110  9.609150
232  2 -0.8819 12.766900  9.715890  9.770380
233  2 -0.8249 14.740800 13.299100  9.941780
234  2 -0.8891  0.031445 17.078100  9.923540
235  2 -0.9191 10.989400 20.783600  9.712490
236  2 -0.8339 12.706500  2.228070  9.755940
237  2 -0.9383 14.991900  5.822630  9.823680
238  2 -0.8921  0.038059  9.255130  9.479290
239  2 -0.8879 15.026700 20.642300  9.621640
240  2 -0.9030  0.011904  1.808700  9.886490
241  2 -0.3481  0.067181 14.551800  6.200340
242  2 -0.2945  2.232860 18.146400  6.271130
243  2 -0.3604 16.907800  7.028620  6.368230
244  2 -0.3328  2.299380 10.799000  6.090690
245  2 -0.3589  4.480480 14.230600  6.113210
246  2 -0.3380  6.408720 18.188300  6.334520
247  2 -0.3846  0.804927 21.658900  6.351530
248  2 -0.3486  2.326330  3.565980  6.352910
249  2 -0.3245  4.602100  7.307890  6.269650
250  2 -0.3692  6.476040 10.667800  6.271730
251  2 -0.3297  9.057030 14.174500  6.249000
252  2 -0.3320 10.573300 17.966300  6.644410
253  2 -0.2996  4.568030 -0.309312  6.370120
254  2 -0.3613  6.385030  3.326990  6.253110
255  2 -0.3200  8.612720  6.954820  6.238770
256  2 -0.3484 10.541300 10.805600  6.271260
257  2 -0.2906 12.974600 14.405900  6.311030
258  2 -0.3749 15.096100 17.917400  6.466210
259  2 -0.3372  8.624400 -0.086056  6.546800
260  2 -0.3851 11.017800  3.549440  6.466190
261  2 -0.3630 12.752000  6.959310  6.159200
262  2 -0.3711 14.875000 10.701000  6.163090
263  2 -0.3415 13.117400 -0.482227  5.981060
264  2 -0.3201 14.960100  3.657970  6.131570
265  2 -0.3412  2.070450 13.577400  3.486460
266  2 -0.3884  4.478540 16.760200  3.506340
267  2 -0.2976  2.604830  5.887000  3.490260
268  2 -0.3067  4.375000  9.657400  3.733650
269  2 -0.3732  6.887420 13.194900  3.525450
270  2 -0.3629  8.693820 17.111700  3.641050
271  2 -0.3592  2.506020 20.487900  3.395650
272  2 -0.3735  4.331320  1.837410  3.352230
273  2 -0.2931  6.534030  5.739270  3.784910
274  2 -0.3408  8.929920  9.518450  3.592820
275  2 -0.3046 11.035800 13.081600  3.632980
276  2 -0.3098 12.868700 16.672000  3.724550
277  2 -0.3200  6.726870 20.663600  3.480560
278  2 -0.3268  8.849400  1.932510  3.506810
279  2 -0.3976 10.727800  5.891720  3.464190
280  2 -0.3961 12.550500  9.568640  3.214040
281  2 -0.3212 14.618500 13.249300  3.503350
282  2 -0.2798 17.320600 16.932000  3.525370
283  2 -0.3945 10.931600 20.645300  3.258040
284  2 -0.3944 13.032800  2.555270  3.282230
285  2 -0.3157 15.076500  6.141120  3.375570
286  2 -0.3669  0.421571  9.465990  3.465570
287  2 -0.3942 15.421200 20.749700  3.329920
288  2 -0.3635 17.039400  2.827310  3.273690
289  2 -0.7927  1.693810 15.899800 19.575000
290  2 -0.8592  4.301320 19.407100 19.811400
291  2 -0.8749  2.222090  8.294180 19.790500
292  2 -0.8801  4.042490 11.968900 19.634900
293  2 -0.9142  6.363120 15.715400 19.590600
294  2 -0.9040  8.219610 19.150700 19.706300
295  2 -0.8716  2.526430  0.979292 19.446500
296  2 -0.9414  4.459950  4.449860 19.838000
297  2 -0.9093  6.317230  8.188140 19.877900
298  2 -0.8240  8.403380 12.006800 19.721300
299  2 -0.9061 10.584400 15.896500 19.700000
300  2 -0.8716 12.742100 19.496900 20.021000
301  2 -0.9063  6.569970  0.789462 19.723000
302  2 -0.8976  8.482940  4.370530 19.688000
303  2 -0.7969 10.592000  8.277570 19.550900
304  2 -0.8583 12.447400 12.128100 19.813900
305  2 -0.8718 14.970700 15.900300 19.715600
306  2 -0.8844 -0.242056 19.190400 19.865400
307  2 -0.8473 10.594200  0.948980 20.012900
308  2 -0.8443 12.814100  4.733930 19.652100
309  2 -0.8898 14.907500  8.681170 20.017700
310  2 -0.8374 16.925300 12.356200 19.446800
311  2 -0.8789 15.097400  1.223810 19.876000
312  2 -0.9035  0.208130  4.684030 19.761300
313  2 -0.3249  1.861610 13.407400 16.174600
314  2 -0.3036  3.848940 16.845200 15.849100
315  2 -0.3239  2.205910  5.912100 16.491200
316  2 -0.3921  4.329880  9.127360 16.575700
317  2 -0.3183  6.336950 13.110700 15.867100
318  2 -0.3712  8.490940 17.012500 16.479400
319  2 -0.3773  1.900610 20.991600 16.420000
320  2 -0.2010  4.309950  2.285440 15.982400
321  2 -0.2855  6.329050  5.591710 16.040300
322  2 -0.3264  8.510400  9.336230 16.194800
323  2 -0.2837 10.747300 13.557700 16.141900
324  2 -0.3087 12.765200 16.569800 16.299800
325  2 -0.4378  6.199950 20.601600 16.390400
326  2 -0.3837  8.828360  2.065790 16.299700
327  2 -0.2962 10.828200  5.734190 16.264600
328  2 -0.3795 12.861800  9.478120 16.270700
329  2 -0.3529 14.433600 13.330200 16.208200
330  2 -0.3521 -0.018368 17.053700 16.239000
331  2 -0.3437 10.696700 20.610800 16.336000
332  2 -0.2465 12.839800  2.092750 16.137400
333  2 -0.3999 15.389500  5.740300 16.478900
334  2 -0.3876 -0.118177  9.840860 16.164900
335  2 -0.3861 14.342300 20.709900 16.320100
336  2 -0.3123  0.374857  2.151180 16.480800
337  2 -0.3747  2.092990 15.939700 13.172200
338  2 -0.3891  5.078540 19.105200 13.072100
339  2 -0.3623  2.301990  8.557390 12.898700
340  2 -0.2219  3.877340 11.729800 13.470900
341  2 -0.3041  7.085290 15.923200 13.279900
342  2 -0.3097  8.979140 19.480500 13.232100
343  2 -0.3498  2.312370  0.710311 13.205200
344  2 -0.3524  4.185620  4.532400 13.061900
345  2 -0.2699  6.432060  8.216290 13.482300
346  2 -0.4518  8.597920 12.064000 13.308200
347  2 -0.3666 10.971200 15.695800 13.143500
348  2 -0.4069 12.845900 19.679700 12.976300
349  2 -0.2733  6.138130  1.053850 13.453900
350  2 -0.3361  8.460270  4.511490 13.315100
351  2 -0.3637 10.762400  7.958800 13.224000
352  2 -0.3463 12.926500 11.920600 13.475300
353  2 -0.3388 15.153400 16.072800 13.013800
354  2 -0.2706 -0.286556 19.767800 13.687000
355  2 -0.2988 10.625500  0.982449 13.113900
356  2 -0.3257 13.136200  4.888260 13.112200
357  2 -0.2777 15.303800  8.095320 13.435000
358  2 -0.3179  0.452480 11.969900 12.995600
359  2 -0.2682 14.580600  0.836427 13.286900
360  2 -0.2640  0.160094  4.579410 13.481800

