Generated by pymatgen.io.lammps.data.LammpsData

320  atoms

  2  atom types

0.000000 16.864293  xlo xhi
0.000000 23.165087  ylo yhi
0.000000 24.472453  zlo zhi

Masses

1  208.9804
2   78.9600

Atoms

1    1  0.8035  3.053700 11.604900 10.055200
2    1  0.7979  1.023050  8.721980 22.964100
3    1  0.8170  2.410520 19.964500 11.390300
4    1  0.7780  1.871470  0.538067 20.957100
5    1  0.7900  5.473150 12.732600 13.625100
6    1  0.5513  7.131520 13.740500  0.037693
7    1  0.8101  3.082510  0.696919 11.443700
8    1  0.8110  2.304990 19.239100 18.484100
9    1  0.7022  7.683310 12.259000 10.489900
10   1  0.5752  6.706990  9.287000  0.742337
11   1  0.8684  9.140600 22.658600  9.670750
12   1  0.8506 11.911000 21.016900 23.829900
13   1  0.8992 13.104800 13.219200  9.301350
14   1  0.7504 11.717300  8.167570 21.725700
15   1  0.7773 13.123000 21.482000 10.639200
16   1  0.7533 14.418600  0.578138 21.970600
17   1  0.7440  3.237910 23.188200  0.652629
18   1  0.8167  0.736189  1.775990 14.583300
19   1  0.7929  5.506590  8.950550  5.400990
20   1  0.9183  1.681860 10.140900 13.685900
21   1  0.7294  4.495390  0.771768  4.172620
22   1  0.6945 12.221600  0.158438 19.337300
23   1  0.7338  9.778930  8.259380  4.239410
24   1  0.7039  9.292710 11.091700 15.796600
25   1  0.8178  7.028960  4.571570  3.560260
26   1  0.8271 10.411100  2.316780 13.611500
27   1  0.7367 13.922800 12.710200  3.847640
28   1  0.5936  9.989810 13.535800 13.309700
29   1  0.8212 15.747800  0.852525  1.184120
30   1  0.7339 16.597000 17.805100 15.775400
31   1  0.7236 16.654800 10.987200  0.667272
32   1  0.8075 14.801300 10.127300 13.712800
33   1  0.7085  2.857530  4.675270  9.907170
34   1  0.6318  3.779870  3.136470 18.493500
35   1  0.7788  2.962290 16.822200  9.066970
36   1  0.7481  4.014140 14.492900 20.766800
37   1  0.7833  8.515540  5.422420  7.709580
38   1  0.7987  7.621610  7.358760 22.637800
39   1  0.8168  6.881320 17.794300  9.852380
40   1  0.7930  4.288730 17.791600 22.163700
41   1  0.8578  9.059630  0.970114  5.515190
42   1  0.8314  7.932270  8.107920 18.675700
43   1  0.8529 10.572000 18.613500 11.790500
44   1  0.8467  8.820070 18.255400 22.922600
45   1  0.6608 15.656600  7.261660  5.831130
46   1  0.7835 13.698000  5.521000 20.114200
47   1  0.8246 15.682000 18.646200  8.778430
48   1  0.6978 15.521200 16.715500 18.640400
49   1  0.7855 13.929800  8.011260  2.315210
50   1  0.6845  1.169060  5.022040 15.777200
51   1  0.8154  3.070310 18.924400  6.180750
52   1  0.8021  3.804800 14.169800 16.867500
53   1  0.7516  4.139690  4.969950  5.539920
54   1  0.6564  4.745180  3.878390 15.094400
55   1  0.6618  5.420110 16.814400  4.176070
56   1  0.8482  5.442720 19.109600 14.540400
57   1  0.7973  9.090410 10.799800  7.081310
58   1  0.7234  4.644370  7.312960 15.997000
59   1  0.8505  9.412490 18.901000  3.722140
60   1  0.7987  9.439940 19.308700 15.786600
61   1  0.8289 13.233200  9.781540  6.149960
62   1  0.8648 10.924200  8.130580 16.140900
63   1  0.7178 12.434300 15.657700  1.642690
64   1  0.7238 12.038900 19.209700 19.069700
65   1  0.5398  0.632738  5.008120  7.473250
66   1  0.7748 15.696500  2.370540 18.357700
67   1  0.8596  3.985190 13.328300  6.913170
68   1  0.8861  1.680200 11.004400 18.622300
69   1  0.8376  5.459040  1.569320  8.332630
70   1  0.8260  4.985510 21.241100 19.831300
71   1  0.6923  7.259030 14.617200  7.732300
72   1  0.8476  6.149590 17.262500 18.568300
73   1  0.7963 12.447500  2.118050  9.768770
74   1  0.7929 10.109800  3.975310 20.635900
75   1  0.7812 11.225300 15.937600  5.254350
76   1  0.7753 10.189900 16.086200 16.192900
77   1  0.7581 13.160000  5.016430  4.454160
78   1  0.8369 13.165000  4.213470 16.489900
79   1  0.8484  0.053523 12.676900  7.589220
80   1  0.7645 16.176100 14.178600 15.696000
81   1  0.6505  2.466230  8.097200  7.555920
82   1  0.7655  2.350230  6.659100 18.938900
83   1  0.8199  1.256180 22.920500  8.010210
84   1  0.8369  3.784870 22.306800 16.399400
85   1  0.7961  6.352200  8.709600  8.616220
86   1  0.7814  5.749450 11.048200 20.050100
87   1  0.7593  6.878450 19.664200  6.344530
88   1  0.7475  8.055460 20.520100 18.761400
89   1  0.7602 11.967200  7.642200  9.356660
90   1  0.7829 12.654900 11.389100 17.563200
91   1  0.8347 13.992500 22.630800  6.796620
92   1  0.7965 15.358100 21.610900 16.973400
93   1  0.8178  1.243400 10.648900  4.444210
94   1  0.8447 15.677500  8.316870 17.230800
95   1  0.7750  1.467180 21.265600  4.076500
96   1  0.8960 16.419500 19.481900 21.100100
97   1  0.7364  0.524757  6.538880 11.630300
98   1  0.7698  4.096470  7.400290  1.390050
99   1  0.8282 16.647700 14.766500 10.642100
100  1  0.6568  3.255940 19.013900  1.020040
101  1  0.8832  7.283020  7.982190 12.627000
102  1  0.7973  5.161460  3.685610 21.920300
103  1  0.8485  7.362740 21.134600 12.615700
104  1  0.7927  6.140520 20.764400  2.340640
105  1  0.7296 10.713300  9.783750 11.903200
106  1  0.6817  9.807670  5.863500  1.179310
107  1  0.9002  9.168050  0.236757 16.869300
108  1  0.6006  8.251940 16.062900  1.354330
109  1  0.8605 14.641000  9.836750 10.434900
110  1  0.7677 15.379900  6.006640 23.875000
111  1  0.8602 13.150300 20.785900 14.321700
112  1  0.8261 15.661800 19.453900  1.510600
113  1  0.8241  0.779785  3.140340 23.223700
114  1  0.8481 13.843200  5.210310 11.795400
115  1  0.6170  3.567170 11.508500 24.144400
116  1  0.6889  1.972780 16.111500 14.024100
117  1  0.8504  1.859090  3.808200  2.373400
118  1  0.8197  6.710790  2.168380 12.887300
119  1  0.5820  4.229050 15.398300  1.059250
120  1  0.6879  4.076850 14.786300 11.363200
121  1  0.7799  8.280070  0.868560 21.964100
122  1  0.8278  9.599990  4.413010 16.521700
123  1  0.6535  8.715660 13.031900  3.981220
124  1  0.8406  7.326720 16.037600 13.580200
125  1  0.8464 12.353300  3.641870  0.036420
126  1  0.7205 10.046500  5.191900 11.188100
127  1  0.7997  0.477005 14.957100  2.163350
128  1  0.7971 13.473600 14.245900 13.339700
129  2 -0.4522 15.034200  0.205964  9.106650
130  2 -0.5689 16.202200  2.801750 20.920500
131  2 -0.4081  0.152094 16.592300  7.696340
132  2 -0.0222 16.482300 14.087200 21.842100
133  2 -0.3732  5.602700  4.058370 10.331500
134  2 -0.5545  3.226840  2.780850  0.047270
135  2 -0.7697  7.250350 15.519000 10.923500
136  2 -0.4313  6.046060 14.419800 18.446600
137  2 -0.4035 10.582300  3.070870  6.819160
138  2 -0.4953  7.032720  4.990150 20.459500
139  2 -0.1119 12.451400 17.063000  9.170700
140  2  0.0085  9.296170 14.604600 20.521500
141  2 -0.7057 12.134500  4.967270  9.491770
142  2 -0.5979 14.184700  3.985290 22.650900
143  2 -0.6610 15.851500 12.283900  9.822180
144  2 -0.1966 16.123300 11.855900 19.533500
145  2 -0.6119 10.434800  7.594400  6.964320
146  2 -0.4140 16.680400  4.084440 11.620800
147  2 -0.5865  3.552980 22.294300  6.455910
148  2 -0.5971  7.253750 20.804500 15.447400
149  2 -0.2663 10.458800  2.598400  1.011060
150  2 -0.4933  8.624630  4.636190 13.820100
151  2 -0.5485  7.995750 21.192500  4.159720
152  2 -0.5819 10.433400 20.875300 13.754600
153  2 -0.3867 13.513200  9.710350  0.095271
154  2 -0.6902 12.183700 11.078200 14.762700
155  2 -0.2282 13.094200 19.035500  4.340760
156  2 -0.7690 10.443300 21.167900 17.619600
157  2 -0.6229  1.531180 12.350900  2.208060
158  2 -0.5148 13.207300  7.418640 16.367600
159  2 -0.4825  1.109500 18.237600  2.811000
160  2 -0.7912 16.132000 19.099700 18.270000
161  2 -0.6190  0.392029  9.571770 11.527700
162  2 -0.7773  5.381100 12.555500 22.324400
163  2 -0.4803  5.265640 20.111300  8.705920
164  2  0.0422 12.243100 12.170800 22.718000
165  2 -0.4697  5.650870 10.483800 10.929300
166  2 -0.4584  8.461280  9.508940 20.805200
167  2 -0.5769  6.352850 22.566600 10.758200
168  2 -0.3375  0.320383 17.314700 21.460400
169  2 -0.6435 12.028000 10.346800  9.007040
170  2 -0.2932 10.242000 12.347800 18.443200
171  2 -0.5374 11.111300 23.182200  7.925750
172  2 -0.3245 14.398900 17.576100 24.268100
173  2 -0.6879 16.068100 15.929700 13.987500
174  2 -0.4929 13.904000  8.392820 20.312200
175  2 -0.4845 15.916100 20.210500 14.755000
176  2 -0.4945 14.600600 20.851100 22.973600
177  2 -0.6414 16.288800  3.807810  0.890405
178  2 -0.3613 14.821900 23.086800 14.593600
179  2 -0.5363  2.213470 16.475900 24.030400
180  2 -0.5435 16.368500 12.318200 13.466200
181  2 -0.5053  5.605290  0.419325  1.791810
182  2 -0.4775  7.521960  2.136580 15.935000
183  2 -0.6816  7.855190  9.787860  4.295850
184  2 -0.4704  7.193070 10.798500 17.537000
185  2 -0.2359  8.228220  1.901370  2.931090
186  2 -0.5873 11.773100  1.532700 15.948700
187  2 -0.5342  5.531150 13.494200  3.568280
188  2 -0.5323  7.989520 14.195100 15.622900
189  2 -0.4736 13.236800  0.223972  0.348689
190  2 -0.4792 15.377900  3.367580 15.325300
191  2 -0.5928 14.114100 13.066300  7.058530
192  2 -0.6352 12.728000 14.148500 16.249700
193  2 -0.3927  2.783170 15.628100  3.702970
194  2 -0.5521  2.240670  7.043190 14.005100
195  2 -0.6271  1.856560  0.686601  3.076530
196  2 -0.4636  1.100250 23.007500 16.651400
197  2 -0.7136  5.116730 13.072100  9.352520
198  2 -0.4434  1.234950 12.109900 16.157900
199  2 -0.6879  3.169950  1.924230  9.303200
200  2 -0.6976  4.839790 19.719600 17.518300
201  2 -0.5042 11.731100 10.999400  3.976480
202  2 -0.5434  5.666050  8.083220 19.623200
203  2 -0.1474 12.427100  0.856084  4.115560
204  2 -0.5579 10.425400 19.768400 21.608800
205  2 -0.4383 14.797300 15.538200  4.358870
206  2 -0.5494  2.156430  8.939630 16.573600
207  2 -0.3159 14.437200  2.556540  3.666490
208  2 -0.6501 14.044200 21.302700 19.626000
209  2 -0.3075 15.429500  3.275090  8.746840
210  2 -0.4834 -0.034019 22.965500 19.480000
211  2 -0.5864  6.485010 11.524300  7.355030
212  2 -0.5572  1.957410  8.926250 20.031500
213  2 -0.5402  7.380950 22.846100  7.622450
214  2 -0.6157  2.440230 20.038100 20.767300
215  2 -0.6970  8.833270  9.770130  9.400140
216  2  0.0276 10.390200 12.279200 22.098800
217  2 -0.4048 16.019800 20.837200 10.785400
218  2 -0.5688  9.253050  5.110130 22.874000
219  2 -0.6710 15.774800  9.698590  7.304290
220  2 -0.0503 14.741000 11.402200 21.189500
221  2 -0.3208 16.391800  1.396690  6.417200
222  2 -0.6647 12.536800  3.153530 19.826200
223  2 -0.6521  2.986220 10.685100  7.049780
224  2 -0.5188 15.614900 10.909300 16.706400
225  2 -0.5853  4.657610  4.341790  2.788220
226  2 -0.5886  2.740840  3.226640 12.576600
227  2 -0.8271  4.417890 19.571900  4.251560
228  2 -0.5693  2.927720 20.257600 14.179200
229  2 -0.6136  6.584950 22.845300 18.637000
230  2 -0.6832  5.653340  4.832540 17.213600
231  2 -0.3195  8.368540 21.680300 23.559000
232  2 -0.7329  7.641170 18.542700 12.685800
233  2 -0.5095  9.739570  8.741290 23.836200
234  2 -0.6124 10.468900  7.620780 13.150300
235  2 -0.7685  7.159070 18.364000  2.287910
236  2 -0.6859 10.369500 16.360600 13.660200
237  2 -0.7713 12.553900  6.045030  0.402028
238  2 -0.5550 11.642000  4.914900 14.746500
239  2 -0.3154 10.179000 15.164100 23.666800
240  2 -0.7106  1.278200 15.952600 17.094100
241  2 -0.6462 15.527600  6.842470  9.070870
242  2 -0.5353  2.786410  4.588250 21.094900
243  2 -0.7827  2.209270 14.197800  9.302400
244  2 -0.4620  6.734050 15.907700 21.942300
245  2 -0.3292  3.597620  7.906970 10.865000
246  2 -0.5677  6.567270  6.087200  0.019097
247  2 -0.5921  2.051350 19.725500  8.886480
248  2 -0.7083  5.586010 17.509100 24.346700
249  2 -0.4039  5.649500  6.039420 13.276100
250  2 -0.2396  7.207060  3.062690 23.745900
251  2 -0.4773  9.849350 20.068700  9.573530
252  2 -0.4733 11.129300 18.520200  0.699475
253  2 -0.6653 13.639100  7.953120 11.847700
254  2 -0.4664 16.450500  6.581000 21.579900
255  2 -0.5132 13.889900 15.136600 11.085300
256  2 -0.0351 14.558200 14.489900 21.148000
257  2 -0.7126  6.872680  6.407050  5.424860
258  2 -0.4355 15.685000  6.824690 14.753600
259  2 -0.6163  1.131470 20.963400  0.919367
260  2 -0.6762  4.038420 17.604100 11.677700
261  2 -0.6635 15.142200 10.280700  3.544390
262  2 -0.3160  4.853200  9.390610 14.075200
263  2 -0.5172  5.038330 22.736200 22.763900
264  2 -0.6409  4.655980  0.471834 13.988700
265  2 -0.4193  9.239450 11.907800  1.354890
266  2 -0.7650  8.133480 11.196100 13.142900
267  2 -0.1236 11.238300 21.238400  3.127770
268  2 -0.5492  8.331450  0.400009 13.350100
269  2 -0.5056  1.031600  8.141870  1.572100
270  2 -0.6507 12.868200 11.745800 11.882200
271  2 -0.4225 15.643400 21.628900  3.322710
272  2 -0.6017 12.463600 18.607200 15.726400
273  2 -0.3595  0.578542  0.450351 11.594500
274  2 -0.3445  2.275330  5.873750 23.946400
275  2 -0.6397  3.148570 12.579600 12.975400
276  2 -0.5285  4.426510  9.981860  2.902420
277  2 -0.5677  9.104130  2.491450 10.558500
278  2 -0.1445 10.455600 21.992700  1.444230
279  2 -0.6709  4.807180 15.994800 14.435000
280  2 -0.9326 10.021300 16.089200  3.285560
281  2 -0.3615 13.373000  2.844110 12.926400
282  2 -0.4857 11.014800  1.629890 22.342000
283  2 -0.2822 10.921400 15.425400  9.168750
284  2 -0.4945 14.546200 13.833100  1.159950
285  2 -0.6011 11.233300  0.246105 11.607900
286  2 -0.6568  0.170521  0.163044 23.342100
287  2 -0.5649  0.895156 17.246600 11.014600
288  2 -0.6048  1.183120 11.215600 22.728800
289  2 -0.5988  2.390290  3.251540  5.459340
290  2 -0.6467  3.298560  0.053101 18.895100
291  2 -0.6812  4.415440 16.429100  6.670300
292  2 -0.4383  4.331900 11.841500 15.938400
293  2 -0.6008  6.591120  3.131970  6.112060
294  2 -0.6646  9.978040  1.454600 19.105400
295  2 -0.6351 10.068400 13.237100  6.616030
296  2 -0.6048  6.978300 17.388300 15.975700
297  2 -0.5541 10.018000  4.846160  3.832830
298  2 -0.6006 11.338200  5.864610 18.544900
299  2 -0.4566 13.004900 20.254000  8.326910
300  2 -0.0343 11.232900 15.282000 20.677300
301  2 -0.5573 15.972400  6.307300  3.197570
302  2 -0.6281 -0.124969  5.847130 17.895500
303  2 -0.4264  1.323340 13.435100  5.388750
304  2 -0.4236  1.584310 13.556100 19.229600
305  2 -0.6459  2.903580  7.816760  4.882170
306  2 -0.7176  1.254820  2.864840 17.198900
307  2 -0.4779 -0.075051 20.409200  6.276280
308  2 -0.6351  3.395690 16.826700 19.477100
309  2 -0.7136  4.389170  6.587370  7.955760
310  2 -0.5555  4.335310  8.502730 23.264900
311  2 -0.6031  7.929950 17.146600  7.403710
312  2 -0.6645  6.485050 19.288600 20.960800
313  2 -0.5052  7.506940  6.594210 10.189100
314  2 -0.6030  8.631320  7.014710 16.169700
315  2 -0.3137 10.357400 19.121400  5.979440
316  2 -0.5280  9.258990 17.764800 18.748800
317  2 -0.7520 13.083900  7.640760  4.773530
318  2 -0.5519 11.046700  8.945870 18.514400
319  2 -0.4219 13.156400 18.712900 12.621600
320  2 -0.2724 13.169300 17.468000 21.259000

