Generated by pymatgen.io.lammps.data.LammpsData

360  atoms

  2  atom types

0.000000 16.871067  xlo xhi
0.000000 22.058404  ylo yhi
0.000000 29.928687  zlo zhi

Masses

1  208.9804
2   78.9600

Atoms

1    1  0.6290  2.318710 13.579700 22.709800
2    1  0.8037  4.428540 17.590100 21.950600
3    1  0.8174  2.391360  6.282490 22.315900
4    1  0.7080  4.816000 10.425500 22.426000
5    1  0.8509  6.370370 13.779500 23.340500
6    1  0.8350  8.854650 16.853400 22.013300
7    1  0.8075  1.908570 21.037100 22.421800
8    1  0.7541  4.295820  2.610720 22.435600
9    1  0.7698  6.316280  6.999030 22.195700
10   1  0.8358  9.116070  9.947660 21.991500
11   1  0.8917 10.658600 13.349300 22.866900
12   1  0.6786 13.235800 16.923100 22.214900
13   1  0.8197  5.972200 21.188700 22.175200
14   1  0.7188  8.055150  3.220830 22.388000
15   1  0.6631 10.680700  6.174370 22.219200
16   1  0.8322 12.626000  9.739260 22.715400
17   1  0.7744 14.861700 13.560600 21.588400
18   1  0.7281  0.121803 17.656000 22.178800
19   1  0.8685 10.256500 20.913600 22.100700
20   1  0.6043 12.460600  2.920690 21.722100
21   1  0.6925 15.212600  6.354290 22.713200
22   1  0.7690  0.558811 10.181200 22.723900
23   1  0.6985 14.263800 21.137900 22.482800
24   1  0.7383 -0.216292  1.905330 22.586500
25   1  0.7049  2.041970 13.911000 28.643500
26   1  0.7517  4.039810 18.168700 28.472100
27   1  0.8471  1.770780  6.785150 28.560800
28   1  0.7321  3.767370 10.565900 29.350400
29   1  0.8159  6.430950 13.345300 28.595500
30   1  0.6920  8.694820 17.324800 28.710600
31   1  0.6908  1.891630 21.446700 29.117600
32   1  0.7830  3.985620  2.574320 29.261300
33   1  0.8095  6.087930  6.528220 29.085000
34   1  0.8086  8.156820 10.187000 28.635600
35   1  0.8062 10.721300 13.816700 28.444800
36   1  0.7698 12.640200 17.582900 29.066000
37   1  0.7334  6.419960 21.028800 27.261800
38   1  0.8019  8.172140  1.749610 28.962300
39   1  0.7700 10.067700  5.850360 28.958100
40   1  0.7952 12.753200  9.787500 29.144500
41   1  0.7921 14.505400 13.793600 28.617000
42   1  0.7342 16.804900 17.709300 28.866700
43   1  0.7763 10.047900 20.594900 29.395800
44   1  0.7528 12.869600  2.250370 28.913800
45   1  0.7772 14.517900  6.401160 29.227200
46   1  0.8187 16.400800 10.310200 29.131300
47   1  0.8139 14.084600 20.829500 29.000200
48   1  0.7611 16.760500  2.434250 28.590900
49   1  0.7034  1.954930 15.659200  2.138040
50   1  0.7795  3.604000 20.191100  1.874220
51   1  0.7690  2.158960  8.686860  2.601590
52   1  0.8577  4.420320 12.425700  2.507780
53   1  0.7324  6.561730 16.275400  2.400720
54   1  0.7798  7.725210 19.805500  3.158650
55   1  0.7699  1.671760  1.712740  2.661390
56   1  0.7866  4.070600  5.293270  2.803690
57   1  0.7788  6.030100  8.424180  2.354410
58   1  0.8343  8.618290 12.510500  2.102150
59   1  0.7473 10.907000 16.089600  2.123080
60   1  0.8989 12.630800 20.022100  3.115790
61   1  0.9053  6.152970  1.363000  2.704590
62   1  0.7551  8.337850  4.920370  2.305200
63   1  0.8003 10.335900  8.549390  2.480390
64   1  0.8123 12.155200 12.205900  2.103200
65   1  0.7349 14.931500 15.780600  1.961200
66   1  0.8347 16.926200 19.289800  2.735220
67   1  0.7642 10.846300  1.232440  2.751750
68   1  0.6513 12.462600  4.980320  2.984050
69   1  0.7709 14.889900  8.622900  2.523050
70   1  0.8256  0.002435 11.897100  3.123950
71   1  0.7543 14.545900  1.711050  2.561400
72   1  0.7588 16.352300  5.073110  2.254500
73   1  0.8346  2.439010 16.459100  8.838660
74   1  0.8138  4.255900 19.608500  8.208730
75   1  0.8110  2.514330  9.227320  8.353160
76   1  0.7822  4.539060 12.272400  9.092220
77   1  0.7663  6.454980 16.403900  8.973480
78   1  0.7801  8.648070 19.815600  8.884560
79   1  0.7843  1.994380  1.225950  8.701280
80   1  0.6551  4.094120  5.112960  8.856590
81   1  0.6672  6.627670  8.836780  9.037380
82   1  0.7287  8.658860 12.422900  8.547830
83   1  0.7875 10.230200 16.044700  8.256450
84   1  0.6837 12.745300 20.235800  8.546600
85   1  0.7242  5.953320  1.597390  8.621450
86   1  0.7843  8.415740  5.772400  8.834350
87   1  0.7533 11.186900  9.002020  9.330940
88   1  0.7645 12.896600 12.103800  8.902350
89   1  0.7258 14.803500 16.835400  8.439640
90   1  0.7795 16.281200 20.042300  8.404470
91   1  0.8213 10.271800  1.899090  8.628850
92   1  0.7507 13.582000  5.545120  8.980070
93   1  0.7665 15.110400  8.573670  9.074350
94   1  0.6509 -0.086131 12.975800  9.250300
95   1  0.8049 14.970400  1.950360  9.029410
96   1  0.7818  0.285488  5.277060  9.108080
97   1  0.7097 16.559800 14.276600 12.862500
98   1  0.8271  2.056150 17.566200 12.319300
99   1  0.8378 17.122100  7.677900 12.721100
100  1  0.7519  2.230350 11.281100 12.484000
101  1  0.8170  4.784880 14.717400 12.972500
102  1  0.7943  6.507440 18.710400 12.309100
103  1  0.7470  0.260107  0.060195 12.426300
104  1  0.8075  2.303570  4.202350 12.438300
105  1  0.7766  4.913620  7.561580 11.784600
106  1  0.7743  6.568810 11.710400 12.276200
107  1  0.7438  8.717540 14.907600 12.613200
108  1  0.8124 10.635500 18.775700 12.036800
109  1  0.7744  3.971500  0.129947 12.167400
110  1  0.8940 10.655200 21.390900 15.284700
111  1  0.8244  8.806140  7.490450 12.128000
112  1  0.7337 11.183200 11.165300 12.976200
113  1  0.7292 12.262300 14.619600 13.452900
114  1  0.6966 15.169900 18.611800 11.957400
115  1  0.8082  8.565330  0.531884 11.521100
116  1  0.8277 10.960600  3.997880 12.599000
117  1  0.7900 12.773200  7.581110 12.415700
118  1  0.6467 15.085200 11.228500 12.678200
119  1  0.7271 12.717500  0.366795 11.915100
120  1  0.7171 15.584800  3.633100 12.302100
121  1  0.8048  0.128798 15.135600 18.934200
122  1  0.7875  2.250970 18.341900 18.696700
123  1  0.7015  0.151825  7.568400 18.855000
124  1  0.6238  2.922820 11.745500 19.104000
125  1  0.6890  4.191400 15.178100 18.380400
126  1  0.8068  6.502490 18.363900 18.647400
127  1  0.8254  0.228616 -0.167235 17.769300
128  1  0.7547  2.539950  3.750130 19.275300
129  1  0.6904  4.431280  7.734210 18.353300
130  1  0.8243  6.604430 10.957600 18.948000
131  1  0.8196  8.091100 14.348600 18.743300
132  1  0.7728 10.634700 17.667400 18.702400
133  1  0.7784  3.907040  0.543928 18.645800
134  1  0.7603  6.631100  4.086760 18.550600
135  1  0.7899  9.127970  7.690840 18.441700
136  1  0.8679 10.912000 11.370300 19.108900
137  1  0.7886 12.676100 14.854500 18.731000
138  1  0.8289 14.670900 18.183100 18.616700
139  1  0.8015  8.698140  0.324736 18.746600
140  1  0.7588 10.390200  4.008460 18.162200
141  1  0.7353 13.211800  7.670000 19.256200
142  1  0.8725 14.600000 11.135100 18.835300
143  1  0.8395 12.941700  0.383575 18.780500
144  1  0.7495 15.151000  4.293760 19.790900
145  2 -0.8736 16.608400 14.461900  0.372024
146  2 -0.9215  1.769040 18.673600  0.526118
147  2 -0.8592 16.645100  7.973990  0.507686
148  2 -0.8626  1.734910 11.235400  1.300740
149  2 -0.7633  4.543060 14.718000  0.958009
150  2 -0.8363  5.448690 19.699500 29.829500
151  2 -0.7696 16.295100 -0.108019  0.630195
152  2 -0.7711  1.801790  4.186010  0.681147
153  2 -0.9055  4.156210  7.487950  0.762630
154  2 -0.8508  6.139130 11.241900  0.798728
155  2 -0.8308  8.201350 14.700100  0.114577
156  2 -0.8629 10.572600 18.860100  1.032550
157  2 -0.8165  3.937310  0.715206  1.340760
158  2 -0.7367  6.097810  3.521370  0.938648
159  2 -0.8934  8.200620  7.130900  0.705368
160  2 -0.8793 10.309000 11.070000  0.692013
161  2 -0.9610 12.436200 15.146500  0.063862
162  2 -0.7688 14.328000 18.774800  1.270320
163  2 -0.7875  8.272220 -0.070586  1.500300
164  2 -0.8200  9.915930  3.435040  0.475674
165  2 -0.8914 12.567200  7.600610  1.063660
166  2 -0.8586 14.360900 11.409500  0.873538
167  2 -0.8419 12.574000  0.134838  1.065680
168  2 -0.9366 15.095700  3.794560  0.409998
169  2 -0.3535  1.914620 16.367400 26.998800
170  2 -0.3268  3.262400 20.290300 26.700800
171  2 -0.4457  1.810520  9.443040 27.797900
172  2 -0.3881  4.585580 12.616800 26.928000
173  2 -0.3108  6.496600 16.197300 26.873800
174  2 -0.4293  8.714570 19.289000 27.012200
175  2 -0.4677  2.118320  1.755890 27.347400
176  2 -0.2772  4.409470  5.823920 27.118000
177  2 -0.3128  6.126830  9.578320 27.178700
178  2 -0.4059  8.528040 12.228400 27.036900
179  2 -0.3634 10.685600 15.832000 26.939600
180  2 -0.3950 12.180500 19.943400 27.501000
181  2 -0.3277  5.739870  2.206770 26.955200
182  2 -0.3106  7.813290  4.252810 27.675000
183  2 -0.3457 10.638300  8.676810 27.534400
184  2 -0.3856 12.736200 11.930000 27.248800
185  2 -0.3623 14.814200 16.656100 27.173900
186  2 -0.3160 16.275500 20.102800 27.173900
187  2 -0.4397 10.024300  0.608579 27.705500
188  2 -0.2843 13.018400  5.007590 27.252200
189  2 -0.3408 14.696400  8.625820 27.436600
190  2 -0.2817  0.167790 12.364500 26.896600
191  2 -0.3303 13.869800  1.130480 26.886900
192  2 -0.2942 -0.271391  5.690220 27.106000
193  2 -0.2392 17.009400 14.623500 24.464600
194  2 -0.3906  2.601070 18.847400 23.573400
195  2 -0.3708  0.248077  7.478000 24.136300
196  2 -0.4117  2.633260 11.375700 24.378400
197  2 -0.4138  4.461200 15.751000 23.833300
198  2 -0.4237  6.491250 18.945000 23.308500
199  2 -0.5137 16.697700 21.511100 23.770700
200  2 -0.3141  2.660130  3.902270 24.251700
201  2 -0.2948  4.627720  8.163440 24.279400
202  2 -0.3911  6.665750 11.107200 24.026000
203  2 -0.3890  8.623690 14.884200 24.174700
204  2 -0.3927 10.382200 18.295500 23.531600
205  2 -0.4802  4.043310  0.014157 23.779800
206  2 -0.1998  6.515300  4.498640 24.753600
207  2 -0.3006  8.629950  7.875550 24.091400
208  2 -0.4575 10.547600 10.951500 23.956800
209  2 -0.4323 13.207100 14.261300 23.636000
210  2 -0.4133 14.542300 18.656900 23.864200
211  2 -0.4228  7.686260  0.511837 23.626300
212  2 -0.2574  9.906520  4.433090 24.543400
213  2 -0.3358 12.810700  7.502490 24.406900
214  2 -0.3012 14.954200 11.524800 23.865500
215  2 -0.2806 11.515000  1.200380 23.999000
216  2 -0.4016 14.510200  3.893330 24.201400
217  2 -0.7657  2.836560 14.140200 10.887400
218  2 -0.8112  3.791190 17.901200 10.291600
219  2 -0.8313  2.266540  6.183470 10.818100
220  2 -0.9079  4.320390 10.464700 10.680500
221  2 -0.8647  6.626280 14.066900 10.748100
222  2 -0.8237  8.405230 17.284100 10.599300
223  2 -0.7236  1.581710 20.917400  9.915830
224  2 -0.7165  4.396900  2.329370 10.992700
225  2 -0.9074  6.867180  6.656480 10.690600
226  2 -0.8320  8.898340 10.251800 10.721500
227  2 -0.6894 10.795200 13.564100 10.312100
228  2 -0.6446 12.155700 16.839000 10.847300
229  2 -0.7880  6.365880 20.764500 10.220000
230  2 -0.5856  8.487200  3.113120 10.689400
231  2 -0.8382 10.970700  6.416080 10.715200
232  2 -0.9550 13.032200  9.812390 11.022300
233  2 -0.8024 14.787300 14.046100 10.918500
234  2 -0.8202 17.016700 17.369900 10.083000
235  2 -0.8878 10.733000 21.278800 10.186000
236  2 -0.7916 12.572200  2.764960 10.457800
237  2 -0.8992 15.293700  6.451270 10.936300
238  2 -0.8126  0.291840  9.528890 10.761800
239  2 -0.8542 15.017100 21.487200 10.347300
240  2 -0.9378  0.310252  2.625550 10.413100
241  2 -0.2203  0.330335 14.628300  6.815800
242  2 -0.2815  1.105030 18.262600  6.685080
243  2 -0.3975  0.223401  7.467000  7.486710
244  2 -0.3735  2.347570 11.538300  7.294010
245  2 -0.3137  4.267790 14.796500  7.188740
246  2 -0.3978  6.368900 18.271900  6.878400
247  2 -0.3354 16.560800  0.113560  6.948180
248  2 -0.3411  1.732880  3.448020  7.025370
249  2 -0.3908  4.140970  7.317830  7.018180
250  2 -0.3827  5.834870 10.508500  7.102220
251  2 -0.3518  8.060980 15.307100  6.774820
252  2 -0.4459 10.294200 18.899900  7.025770
253  2 -0.3792  4.244690  0.111745  6.846270
254  2 -0.3570  6.233100  3.781640  6.706550
255  2 -0.3120  9.123190  8.382150  7.180410
256  2 -0.3136 10.885000 11.288200  7.029310
257  2 -0.3089 13.272700 14.340100  7.415460
258  2 -0.4084 14.318800 18.384700  6.379030
259  2 -0.4082  7.955650  0.082168  7.212970
260  2 -0.3614 10.598400  4.386930  7.480320
261  2 -0.3816 12.903100  7.601470  7.361120
262  2 -0.3002 15.255800 11.278000  7.043610
263  2 -0.3265 12.744400  0.512273  7.181700
264  2 -0.2959 15.062300  4.183580  7.036200
265  2 -0.3063  2.413280 13.893100  4.211280
266  2 -0.2538  3.588080 17.723000  4.268830
267  2 -0.3229  1.825010  6.002090  4.333330
268  2 -0.3488  3.363050  9.762050  4.408840
269  2 -0.4237  6.610350 13.581000  3.437580
270  2 -0.4008  8.476430 16.961000  4.151650
271  2 -0.3272  1.670060 20.836100  4.230710
272  2 -0.3573  3.951460  2.485150  4.091480
273  2 -0.4538  6.482050  6.274040  3.981920
274  2 -0.3149  7.715500 10.108900  3.855290
275  2 -0.3508 10.650000 13.403200  4.029190
276  2 -0.3701 12.443600 16.442500  3.933320
277  2 -0.4094  5.571130 20.784600  4.024420
278  2 -0.3170  8.685950  2.390810  4.709860
279  2 -0.2962 10.344600  6.962310  4.527740
280  2 -0.3189 12.304300 10.528200  4.061680
281  2 -0.2321 14.592900 13.807800  4.300100
282  2 -0.3982  0.102766 16.968200  3.936140
283  2 -0.3075 11.379400 21.477900  4.983610
284  2 -0.4104 12.742200  2.557160  4.487230
285  2 -0.4272 14.596600  6.314980  4.127020
286  2 -0.3818  0.068168  9.746090  4.520510
287  2 -0.3754 14.779200 21.196000  3.929650
288  2 -0.3310 16.328900  3.171280  4.293670
289  2 -0.9120  2.025520 16.146200 20.737100
290  2 -0.8065  4.523230 19.915600 19.863000
291  2 -0.8352  2.363480  8.944920 20.785800
292  2 -0.8300  5.789440 12.491600 20.656900
293  2 -0.7901  6.406520 16.047400 20.567900
294  2 -0.7124  8.497030 19.958000 20.403800
295  2 -0.8256  1.748610  1.516070 20.851200
296  2 -0.8478  4.327790  5.138560 20.894700
297  2 -0.8795  7.030790  8.862930 20.415900
298  2 -0.7326  9.073130 12.565800 20.834400
299  2 -0.8546 10.467200 15.543300 20.587300
300  2 -0.7825 12.689500 20.337400 20.295700
301  2 -0.7793  6.217720  1.588290 20.166000
302  2 -0.8443  8.302540  5.485270 20.501700
303  2 -0.9103 10.945500  8.746890 20.557400
304  2 -0.8252 12.662000 12.178900 20.745500
305  2 -0.9807 14.882700 16.014300 20.083000
306  2 -0.8113 17.138900 19.578400 19.777600
307  2 -0.7813 10.193700  1.101120 20.673400
308  2 -0.8716 12.394500  5.040920 19.836900
309  2 -0.8150 14.933800  9.098380 21.068800
310  2 -0.7565 -0.119879 12.342200 20.075300
311  2 -0.7857 15.020700  1.697280 19.980700
312  2 -0.8728  0.453540  5.181820 20.883700
313  2 -0.3447  2.962660 13.588600 16.879900
314  2 -0.3209  4.720440 17.650800 16.569400
315  2 -0.3293  2.396270  5.808830 16.949000
316  2 -0.3573  4.552840 10.307700 17.006000
317  2 -0.4178  6.581640 13.355500 17.145700
318  2 -0.4624  8.349110 17.212800 17.193500
319  2 -0.3685  2.365360 20.412700 16.750000
320  2 -0.4718  4.466120  2.479410 17.442000
321  2 -0.3820  6.762090  6.280990 16.876000
322  2 -0.3019  9.276350 10.111000 16.964900
323  2 -0.4450 11.010900 13.227600 17.178700
324  2 -0.5038 12.484500 17.303200 17.256700
325  2 -0.1755  5.772510 21.389600 16.273100
326  2 -0.3522  8.217910  2.095140 16.520700
327  2 -0.2956 10.773600  6.365520 16.500100
328  2 -0.3981 12.672700  9.824450 17.467200
329  2 -0.3676 14.676300 13.638700 17.352700
330  2 -0.3635  0.609462 16.904000 16.947000
331  2 -0.5560 10.837800 20.704700 17.617000
332  2 -0.4685 11.761000  2.206960 16.924100
333  2 -0.3500 15.260500  5.890170 17.482100
334  2 -0.2710 16.703700 10.409400 17.204200
335  2 -0.3347 14.983300 20.688300 16.841100
336  2 -0.2036 16.417500  2.549630 16.737400
337  2 -0.4116  2.483040 15.775200 14.089600
338  2 -0.3597  3.977900 19.411100 13.539900
339  2 -0.3268  3.092000  8.312220 13.953900
340  2 -0.3647  4.825120 12.403200 14.163500
341  2 -0.3705  6.827650 16.553100 14.315700
342  2 -0.5984  8.914650 20.468500 13.273200
343  2 -0.3983  2.208050  1.129240 14.176600
344  2 -0.1518  4.818070  5.403680 13.887900
345  2 -0.1835  6.656080  9.560420 14.499800
346  2 -0.4194  8.772590 12.370400 14.104200
347  2 -0.3542 10.621300 17.212200 14.128600
348  2 -0.4449 12.710900 19.885500 13.799000
349  2 -0.1065  6.799240  1.954230 13.478000
350  2 -0.1975  8.422820  5.228810 13.892800
351  2 -0.3957 10.649200  8.600390 14.051300
352  2 -0.2963 13.113700 12.156200 15.301700
353  2 -0.2925 14.525700 16.176600 14.457400
354  2 -0.3231  0.017732 19.044300 14.026300
355  2 -0.5650 10.345600  1.674140 13.462600
356  2 -0.2721 13.381500  5.493030 14.410500
357  2 -0.2814 14.795700  9.222630 14.763800
358  2 -0.4906 17.224200 12.221600 14.259400
359  2 -0.4297 15.151200  0.966234 13.958600
360  2 -0.4232  0.341861  5.173620 14.013000

