Generated by pymatgen.io.lammps.data.LammpsData

360  atoms

  2  atom types

0.000000 16.677463  xlo xhi
0.000000 21.699897  ylo yhi
0.000000 28.493178  zlo zhi

Masses

1  208.9804
2   78.9600

Atoms

1    1  0.7202  2.193390 13.617800 19.779900
2    1  0.7713  5.043230 16.265500 20.117400
3    1  0.7857  2.754630  5.834130 20.095600
4    1  0.9165  4.259870  9.607680 21.381900
5    1  0.7696  6.635320 12.941400 20.104000
6    1  0.8359  9.248090 16.651800 20.559600
7    1  0.8674  2.505750 19.901600 20.447300
8    1  0.8398  4.311130  2.362960 20.012600
9    1  0.7690  6.752120  5.754770 20.679900
10   1  0.7568  8.817410  8.806710 20.841500
11   1  0.7801 10.539300 13.040900 19.931300
12   1  0.8265 13.369200 16.830400 20.677300
13   1  0.7517  6.236910 20.357600 20.132900
14   1  0.7642  8.312060  1.638320 20.982600
15   1  0.8173 11.257800  5.774290 20.643800
16   1  0.7816 13.629300  8.617820 21.074600
17   1  0.7730 15.291400 12.800800 20.448500
18   1  0.7494  0.114875 16.411800 20.220900
19   1  0.7342 10.866000 20.068200 20.144200
20   1  0.6937 12.759600  1.594500 20.200900
21   1  0.8133 15.450200  5.333830 20.348100
22   1  0.7696  0.975628  9.674500 20.074900
23   1  0.8251 15.558300 20.588500 20.711600
24   1  0.7717  0.317832  2.175730 20.308100
25   1  0.7908  2.604810 12.635100 26.561600
26   1  0.7607  4.535770 15.970300 27.562400
27   1  0.8300  2.357910  5.329320 26.867100
28   1  0.8134  4.556030  9.127920 26.479500
29   1  0.7485  6.219940 12.295300 24.872600
30   1  0.8022  8.270670 16.365600 26.603600
31   1  0.7222  2.819390 19.436700 27.034200
32   1  0.7950  4.397200  1.592870 26.412100
33   1  0.7214  6.591540  5.344740 26.152400
34   1  0.8090  8.847240  8.472860 25.626800
35   1  0.6902  9.529380 12.433200 25.868300
36   1  0.8860 12.482300 16.103200 25.795100
37   1  0.7280  6.706080 19.720700 26.670700
38   1  0.8686  8.747650  1.341610 26.074000
39   1  0.7576 11.075600  5.124570 26.085800
40   1  0.7509 13.248700  8.965040 26.904400
41   1  0.7004 15.364700 12.631500 26.389400
42   1  0.7307 16.643700 15.928600 26.787000
43   1  0.7832 10.394700 19.322500 26.655000
44   1  0.7889 13.010200  1.432710 26.297100
45   1  0.8341 14.766700  4.691100 26.669700
46   1  0.8326  0.490188  8.661910 26.158000
47   1  0.8167 14.879600 19.750200 26.223400
48   1  0.8477  0.742008  1.761700 26.454300
49   1  0.8297  2.636610 14.074700  1.979730
50   1  0.7277  4.562200 18.515200  1.784800
51   1  0.7728  2.691480  7.598290  1.676540
52   1  0.8230  4.107940 11.008700  3.207530
53   1  0.9132  6.785600 15.188000  1.848370
54   1  0.8067  8.638600 18.656900  1.414200
55   1  0.7955  2.941660  0.792181  1.884600
56   1  0.6526  5.344250  3.928740  1.339200
57   1  0.7776  6.232820  7.679540  1.148360
58   1  0.7983  8.068420 11.038700  1.220050
59   1  0.7586 10.412500 14.216600  1.279420
60   1  0.8905 12.368200 17.910600  1.305180
61   1  0.7971  7.061780  0.262569  1.744450
62   1  0.6893  8.751930  4.987870  0.959372
63   1  0.8146 10.600700  8.017900  0.749012
64   1  0.6657 12.520300 11.487400  0.354305
65   1  0.7712 15.204600 14.748400  1.201680
66   1  0.7406  0.811392 18.727000  1.746250
67   1  0.8333 11.266700  0.421508  1.200080
68   1  0.7551 12.445700  3.971230  1.200810
69   1  0.8258 15.366900  7.073160  1.872280
70   1  0.8427  0.257026 11.033200  1.352940
71   1  0.7888 14.832700  0.269741  1.443880
72   1  0.7668  0.131700  3.762830  1.934500
73   1  0.7987  1.996170 15.095200  7.425040
74   1  0.7528  4.117420 18.581300  7.951690
75   1  0.6991  2.700270  7.720600  7.612890
76   1  0.7748  4.594560 11.540000  7.388540
77   1  0.7696  6.187140 15.439700  7.337450
78   1  0.8451  8.815540 18.693000  7.334940
79   1  0.8455  2.615460  1.018510  7.648800
80   1  0.7592  4.981460  3.672350  7.636840
81   1  0.8135  6.425640  8.212400  7.221160
82   1  0.8085  8.565030 11.188900  7.003780
83   1  0.8502 10.782400 14.364900  7.822290
84   1  0.8491 12.859800 18.453800  7.425500
85   1  0.7640  7.059050  0.395625  7.589130
86   1  0.8000  8.898050  4.488710  7.901020
87   1  0.7800 10.968200  7.652320  7.770430
88   1  0.7799 12.495100 10.800000  7.871790
89   1  0.7112 14.893400 14.900600  8.006040
90   1  0.7899  0.329645 18.760500  7.212000
91   1  0.7746 11.290600  0.407547  7.593140
92   1  0.7154 13.183800  4.228220  7.318290
93   1  0.8174 14.812000  7.577230  6.617610
94   1  0.8119 16.566100 11.144800  8.040620
95   1  0.7381 15.575300 21.619000  8.157530
96   1  0.8482  0.567067  4.079810  7.871310
97   1  0.6918  0.651877 14.594100 11.038800
98   1  0.7986  2.699130 17.942900 11.265000
99   1  0.8437  0.954118  6.967010 11.054100
100  1  0.7397  2.831350 10.366900 10.893200
101  1  0.7856  4.463870 13.960800 10.812300
102  1  0.7530  6.579900 17.280600 10.811700
103  1  0.7619 16.436000 21.251300 11.538700
104  1  0.7742  2.960910  2.840890 11.239600
105  1  0.7744  5.104510  6.632260 11.467100
106  1  0.8416  7.040340 10.532900 11.391600
107  1  0.8763  9.026060 13.757700 10.808500
108  1  0.7406 10.585300 17.328800 11.060900
109  1  0.8365  4.668730 21.082400 10.648500
110  1  0.7732  6.953370  3.197110 11.161200
111  1  0.9050  8.994200  6.919070 11.727000
112  1  0.8297 10.568500 10.221100 11.167100
113  1  0.8357 12.757800 13.778800 10.944000
114  1  0.7730 14.569200 17.133200 11.306500
115  1  0.6711  8.627820 21.003200 10.993900
116  1  0.8621 10.796100  3.170080 10.639500
117  1  0.8515 12.857800  6.531930 11.107500
118  1  0.8523 15.015300 10.472700 11.348000
119  1  0.6969 12.045400 20.378100 11.584500
120  1  0.7729 14.992300  3.106450 11.051000
121  1  0.8163  0.678456 13.623600 16.492400
122  1  0.8297  2.218980 17.665800 16.507700
123  1  0.8116  0.866731  7.035300 16.613400
124  1  0.8440  3.086730 10.339200 16.613100
125  1  0.7711  4.839780 14.341600 16.884000
126  1  0.7636  6.547680 17.935300 16.760800
127  1  0.8209  0.492073 21.037900 17.288300
128  1  0.7779  2.453950  2.930930 16.719900
129  1  0.8069  4.635510  6.553980 16.648000
130  1  0.8155  6.688380 10.313900 17.042000
131  1  0.8025  8.584420 13.585400 17.023100
132  1  0.9041 10.865200 17.714500 16.990100
133  1  0.7639  4.529810 21.256200 17.270900
134  1  0.8262  6.596990  3.079390 16.739800
135  1  0.6278  8.581300  7.209830 17.299400
136  1  0.7928 10.557400  9.864700 16.513900
137  1  0.8002 13.010200 13.636300 17.134300
138  1  0.8177 14.898000 17.078600 17.092400
139  1  0.8006  8.364790 21.161800 17.220700
140  1  0.8209 11.181100  3.156910 17.124100
141  1  0.7385 13.207200  6.866960 16.765500
142  1  0.7829 15.061200 10.363100 17.593000
143  1  0.8622 13.109300 20.988500 16.801100
144  1  0.7844 15.041700  3.208480 16.611500
145  2 -0.9179  0.648503 13.492300 28.341900
146  2 -0.8731  2.315210 17.145900 28.450100
147  2 -0.7722  0.045020  6.210120 28.001600
148  2 -0.7366  2.051230  9.734630 28.382200
149  2 -0.6668  4.503850 13.413700 28.420300
150  2 -0.9759  6.646360 17.009200  0.138344
151  2 -0.7633  0.589775 21.508100  0.221122
152  2 -0.8417  2.504800  2.943070 28.213900
153  2 -0.8896  4.429950  6.611380 27.837700
154  2 -0.5787  5.119770 10.415600  0.841452
155  2 -0.7290  8.041440 13.965000 27.990300
156  2 -0.8361 10.518000 16.929800 28.138400
157  2 -0.8820  4.717160 20.922600  0.055022
158  2 -0.8133  6.885800  2.528180 27.930800
159  2 -0.9023  8.435300  7.136340 27.980900
160  2 -0.8679 10.799700 10.119400 27.616300
161  2 -0.7883 12.919600 14.147200 27.783600
162  2 -0.7309 14.517300 17.191500 28.368300
163  2 -0.8702  8.694710 20.997000 28.189600
164  2 -0.8446 10.727400  2.487970 27.678600
165  2 -0.8183 12.923900  6.254290 28.160400
166  2 -0.8302 15.262500  9.877250 28.082000
167  2 -0.8213 12.904300 20.716200 28.170700
168  2 -0.8672 15.124600  2.646400 28.140200
169  2 -0.3368  1.870600 14.670200 24.962100
170  2 -0.3097  4.272950 18.176900 25.122600
171  2 -0.2907  2.923140  7.015240 24.717300
172  2 -0.4669  3.681390 10.780200 24.561100
173  2 -0.2999  6.424100 15.169900 24.307300
174  2 -0.3749  8.139410 18.343100 24.757500
175  2 -0.3948  2.688670  0.246620 25.113600
176  2 -0.2682  3.912290  3.888410 24.570100
177  2 -0.4613  6.419410  7.756370 24.474600
178  2 -0.6998  7.452400 10.416700 26.806400
179  2 -0.3625 10.209200 15.132300 24.560100
180  2 -0.4856 12.775700 18.551600 25.167900
181  2 -0.3356  6.597810  0.254121 24.607500
182  2 -0.4237  8.895180  4.100510 24.704100
183  2 -0.4781 11.288700  7.598600 24.754600
184  2 -0.2510 12.551100 11.907500 24.325500
185  2 -0.3340 14.825800 15.006300 24.623100
186  2 -0.3298  0.229949 18.844800 24.922200
187  2 -0.3795 10.586500 21.478200 24.756500
188  2 -0.3235 12.962900  3.893740 24.492200
189  2 -0.3274 15.171300  6.974960 24.894000
190  2 -0.3362  0.410520 10.881700 24.583000
191  2 -0.4062 15.233600  0.651180 24.971100
192  2 -0.2706  0.211955  3.896590 24.723000
193  2 -0.3363 16.546500 14.228300 22.179900
194  2 -0.2501  2.266490 17.713800 22.074800
195  2 -0.3518  0.654233  6.882170 21.911500
196  2 -0.5160  2.304310 11.123300 21.561400
197  2 -0.4303  4.724800 13.888300 21.790700
198  2 -0.2522  6.656570 17.816000 21.982400
199  2 -0.3301  1.021280 21.564100 22.252000
200  2 -0.3985  2.090530  3.659270 21.688900
201  2 -0.3464  4.524220  6.944460 22.171600
202  2 -0.5622  6.587740 10.721100 21.896100
203  2 -0.4306  8.829590 14.482900 21.838200
204  2 -0.3124 10.895300 17.696400 22.487300
205  2 -0.3134  4.786310 21.247500 22.078700
206  2 -0.4007  5.979540  3.120520 22.007900
207  2 -0.4935  9.348760  6.101730 22.111400
208  2 -0.4209 10.646900 11.287500 21.515900
209  2 -0.2634 12.711300 14.184700 22.086900
210  2 -0.4191 15.017700 17.710700 22.235100
211  2 -0.3716  8.492820 20.577200 22.020200
212  2 -0.2851 10.935400  2.660340 22.379600
213  2 -0.4308 13.349800  6.046630 22.069000
214  2 -0.3500 15.274000 10.470600 22.422000
215  2 -0.4258 13.396600 21.486300 22.125500
216  2 -0.2899 14.995900  2.884450 22.147100
217  2 -0.8315  2.408230 12.642600  8.935690
218  2 -0.9197  4.401130 16.289300  9.463260
219  2 -0.8076  2.284740  5.435400  9.580790
220  2 -0.8342  4.950670  9.586850  9.485730
221  2 -0.7539  7.074990 12.708600  9.289360
222  2 -0.8047  9.027030 15.939400  9.102530
223  2 -0.7738  2.179910 20.126600  9.435370
224  2 -0.9405  4.723140  1.639550  9.022530
225  2 -0.7667  6.938350  5.994650  9.661000
226  2 -0.7266  8.645100  8.739260  9.644630
227  2 -0.9491 10.626600 12.198200  9.392040
228  2 -0.8816 12.581100 16.044000  9.603320
229  2 -0.8958  6.902380 19.632800  8.995020
230  2 -0.8951  8.742990  2.086100  9.396330
231  2 -0.8923 10.807600  5.597980  9.626780
232  2 -0.8359 12.520900  8.778220 10.020300
233  2 -0.8850 14.769500 12.585500  9.555390
234  2 -0.8765  0.555711 16.656200  9.636540
235  2 -0.9015 10.750000 19.613100  8.737810
236  2 -0.8111 12.798300  2.004760  9.663640
237  2 -0.7667 15.556000  5.525560  8.823010
238  2 -0.7230 16.008300  8.862680  8.634910
239  2 -0.8060 14.548100 19.384400  9.332070
240  2 -0.8528  0.318793  1.951030  9.388620
241  2 -0.3601  0.262537 13.712800  6.170610
242  2 -0.4874  2.339100 17.600400  6.125270
243  2 -0.3955  0.635248  6.583360  5.904230
244  2 -0.3960  1.987410 10.203100  5.889970
245  2 -0.4772  4.261300 13.679100  5.937240
246  2 -0.3869  7.071690 17.391200  5.779780
247  2 -0.4301  0.860361 21.204300  6.251270
248  2 -0.3384  2.720160  2.839620  5.789540
249  2 -0.3841  4.341000  6.053050  6.113600
250  2 -0.5885  6.483680 10.505100  5.788430
251  2 -0.2937  8.471150 13.701600  5.584450
252  2 -0.2656 10.950700 16.228100  5.970430
253  2 -0.3376  4.424050 21.054100  6.147300
254  2 -0.3375  7.196960  3.014160  5.968550
255  2 -0.3592  8.519080  7.011600  6.329240
256  2 -0.4111 11.020100  9.685230  5.991440
257  2 -0.3454 12.536400 13.417200  6.243560
258  2 -0.3037 14.625500 16.927300  5.666500
259  2 -0.2961  8.877750 21.194800  5.430130
260  2 -0.3735 11.061200  2.749960  6.218000
261  2 -0.4042 12.099200  6.157750  5.768220
262  2 -0.3191 14.226100 10.284000  5.965270
263  2 -0.4060 13.300000 20.365000  6.047270
264  2 -0.3099 15.424000  2.318900  5.929590
265  2 -0.3868  1.176100 12.302400  3.433300
266  2 -0.4777  4.412120 15.563700  2.997840
267  2 -0.4055  2.635580  5.375830  3.028950
268  2 -0.4199  4.733230  8.263500  3.614930
269  2 -0.3788  6.578360 12.874900  3.192680
270  2 -0.4040  9.113160 16.278000  2.831980
271  2 -0.3349  2.660240 20.206300  3.592330
272  2 -0.3494  5.048060  1.900790  3.462090
273  2 -0.2523  6.928940  5.485500  3.442320
274  2 -0.3646  8.329120  8.683410  2.748960
275  2 -0.3439 10.339200 12.048900  2.964710
276  2 -0.3054 13.046500 15.662800  2.781480
277  2 -0.4043  6.686510 19.659700  3.364440
278  2 -0.2783  9.387670  2.060710  2.891000
279  2 -0.4003 10.567900  5.809180  2.502020
280  2 -0.2525 13.110500  8.809430  2.901910
281  2 -0.2558 14.458000 11.948300  2.863870
282  2 -0.3289  0.815977 16.147700  3.280890
283  2 -0.5222 10.673600 19.677100  2.394820
284  2 -0.3823 12.885000  1.334440  3.086320
285  2 -0.5196 14.328000  4.912720  2.898150
286  2 -0.4320  0.304402  8.658770  3.144320
287  2 -0.3085 14.838700 19.185700  3.096140
288  2 -0.2757  0.314833  1.615910  3.648000
289  2 -0.9136  2.457410 15.673300 18.336700
290  2 -0.9082  4.540670 18.778700 18.814500
291  2 -0.8065  2.791750  8.288270 18.346500
292  2 -0.7538  4.912880 11.449600 18.711700
293  2 -0.8998  7.028760 15.291600 18.536600
294  2 -0.8798  9.093420 19.011900 18.662700
295  2 -0.9327  2.696850  0.789196 18.840600
296  2 -0.8780  4.772130  4.423400 18.521000
297  2 -0.6805  5.997650  8.092890 19.345900
298  2 -0.7944  8.787120 11.035500 18.409800
299  2 -0.7568 10.894900 15.561800 18.689700
300  2 -0.8012 12.986600 18.581600 18.507500
301  2 -0.9346  6.499370  0.987416 18.625300
302  2 -0.7078  9.143800  3.994900 19.246200
303  2 -0.7730 10.878800  8.211130 19.114300
304  2 -0.7508 12.885000 11.081500 18.350500
305  2 -0.9116 14.637400 15.158700 19.064400
306  2 -0.8759  0.533542 19.118800 19.121500
307  2 -0.7797 10.743700  0.393043 17.987800
308  2 -0.8285 13.337200  4.419950 18.521200
309  2 -0.8335 15.471200  7.814490 19.018400
310  2 -0.9725  0.320505 11.864400 18.346300
311  2 -0.9150 15.255600  0.607327 18.838100
312  2 -0.8200  0.489754  4.529660 18.156800
313  2 -0.5059  3.095590 12.601100 15.579400
314  2 -0.3602  5.035040 16.767700 15.183400
315  2 -0.4962  2.767980  5.122980 15.469500
316  2 -0.4186  5.150050  8.700060 15.147700
317  2 -0.3860  6.694900 12.950500 15.396300
318  2 -0.2856  9.450290 15.857500 15.480700
319  2 -0.3452  2.812840 19.695500 15.109000
320  2 -0.3608  4.753740  1.299490 15.309000
321  2 -0.4224  7.263730  5.768630 15.341100
322  2 -0.4778  8.534550  9.759670 15.197400
323  2 -0.2825 10.629500 12.637200 15.225700
324  2 -0.3754 12.762300 16.199200 15.650400
325  2 -0.3370  6.651700 20.239700 15.106300
326  2 -0.2656  8.458270  1.925880 15.231300
327  2 -0.4089 10.913300  5.388700 15.703400
328  2 -0.3175 13.607200  9.109680 15.045300
329  2 -0.3504 14.858700 12.748700 15.318600
330  2 -0.4674  0.391976 16.052800 15.334700
331  2 -0.4035 10.939000 19.852400 15.423800
332  2 -0.3429 12.750000  1.529970 15.390200
333  2 -0.3546 15.323200  5.495130 15.091000
334  2 -0.3358  0.617865  9.356770 15.102700
335  2 -0.4533 15.348400 19.671700 15.983900
336  2 -0.4072  0.203271  1.035980 15.211000
337  2 -0.3136  3.141150 15.366300 13.018600
338  2 -0.3881  4.886820 18.733800 12.470900
339  2 -0.4633  2.814360  7.713310 12.660200
340  2 -0.3533  4.836870 12.315900 12.622600
341  2 -0.2349  6.582700 15.254600 12.737400
342  2 -0.3687  8.509690 18.043800 12.944000
343  2 -0.4332  2.821790  0.398103 12.128100
344  2 -0.4255  4.957760  3.962140 12.904700
345  2 -0.4330  6.995230  8.091270 12.860300
346  2 -0.3966  8.890610 12.035200 12.755200
347  2 -0.4359 10.748300 15.142600 12.344900
348  2 -0.4151 13.868800 19.082800 12.882500
349  2 -0.4346  6.448710  0.648417 12.165400
350  2 -0.3317  9.342370  4.435700 12.812300
351  2 -0.4294 11.059700  7.544230 13.044700
352  2 -0.3858 12.904700 11.756600 12.643600
353  2 -0.3460 14.859200 15.057600 13.008900
354  2 -0.2355  0.333394 18.969300 13.392700
355  2 -0.3174 10.937300  1.201670 12.630100
356  2 -0.2826 13.035600  4.288890 13.038700
357  2 -0.3573 15.391600  7.692340 12.427500
358  2 -0.4828  0.842656 11.115500 12.260000
359  2 -0.3256 14.158700  0.759165 12.773400
360  2 -0.3243  0.653681  4.621950 12.694000

