Generated by pymatgen.io.lammps.data.LammpsData

216  atoms

  2  atom types

0.000000 18.096178  xlo xhi
0.000000 18.140645  ylo yhi
0.000000 18.233787  zlo zhi

Masses

1  208.9804
2   78.9600

Atoms

1    1  0.8700 18.323000 18.478300  0.114520
2    1  0.7918  0.426651  0.417945  6.043440
3    1  0.7705 18.708400 18.104600 11.893700
4    1  0.7881  0.180622  6.461050  0.128223
5    1  0.8328 18.218700  6.245760  6.287170
6    1  0.8486 18.353600  6.496940 12.258100
7    1  0.8058 18.497800 12.496000 18.202400
8    1  0.8129  0.101106 12.514500  6.187260
9    1  0.7879  0.587327 12.343400 11.924800
10   1  0.6840  6.218270 18.756600 18.316100
11   1  0.8801  6.305860  0.266997  6.087500
12   1  0.8049  6.151350  0.063303 11.969200
13   1  0.8238  6.144880  6.449860 18.323800
14   1  0.7149  6.279590  6.068230  6.143960
15   1  0.7501  6.306220  6.371360 12.448800
16   1  0.8434  6.166990 12.019900 18.111800
17   1  0.7239  6.392170 12.287000  6.149020
18   1  0.8253  6.520170 12.417800 12.073800
19   1  0.7913 12.552500 18.203100 -0.096524
20   1  0.7455 12.335700 18.050500  6.267670
21   1  0.7696 12.506000  0.031374 12.255400
22   1  0.7942 12.632600  6.123690 -0.020492
23   1  0.8025 12.251900  6.446280  6.157590
24   1  0.7583 12.510800  6.404120 12.242100
25   1  0.7522 12.735900 12.397400 18.176900
26   1  0.7765 12.679300 12.209800  6.047070
27   1  0.8038 12.421900 12.398000 12.194700
28   1  0.7611  0.560840  3.520750  2.994910
29   1  0.8003  0.439038  3.602980  9.148260
30   1  0.7997 18.253800  3.126880 15.293300
31   1  0.7681 18.238400  9.658530  2.695270
32   1  0.8187  0.006160  9.287320  9.024010
33   1  0.8466  0.270089  9.396660 15.202800
34   1  0.8604  0.383586 15.372700  2.959130
35   1  0.7603 18.576700 15.538500  9.130340
36   1  0.8223  0.717007 15.345900 14.846300
37   1  0.7671  6.398530  3.426720  2.902910
38   1  0.7569  6.608150  3.335900  8.861720
39   1  0.7652  6.496700  3.025330 15.194000
40   1  0.8428  6.444850  9.161720  2.922500
41   1  0.7692  6.411690  9.248640  8.956730
42   1  0.7616  6.484180  9.549930 15.094100
43   1  0.7278  6.531320 15.272900  2.996060
44   1  0.8519  6.371630 15.537400  9.325950
45   1  0.8394  6.244090 15.130100 15.188200
46   1  0.8072 12.399500  3.260190  3.187040
47   1  0.8274 12.486300  3.339650  9.350500
48   1  0.8034 12.232300  2.831520 15.025400
49   1  0.8167 12.255900  9.627960  3.049910
50   1  0.7599 12.277100  9.510870  9.456910
51   1  0.7919 12.040700  9.611130 15.428200
52   1  0.7557 12.240200 15.362500  3.025780
53   1  0.7145 12.128600 15.606500  9.012750
54   1  0.8204 12.125000 15.448100 14.930200
55   1  0.8399  3.426620 -0.036467  3.104430
56   1  0.7548  3.153940 18.690900  8.852660
57   1  0.7927  3.247590 18.261800 15.338400
58   1  0.7670  3.354390  6.190440  3.057580
59   1  0.7226  3.290690  6.430630  9.333340
60   1  0.8193  3.171520  6.023840 15.466000
61   1  0.7954  3.530530 12.252300  3.069560
62   1  0.7708  3.707700 12.270500  9.292480
63   1  0.7762  3.550370 12.259000 15.012400
64   1  0.7592  9.405750 18.531200  3.017490
65   1  0.8018  9.347970  0.372747  9.240660
66   1  0.8037  9.068150  0.324586 15.175400
67   1  0.7791  9.303280  6.438550  3.365820
68   1  0.7850  9.195940  6.690810  9.057830
69   1  0.7489  9.035640  6.738110 15.231500
70   1  0.8910  9.441700 12.397700  2.901050
71   1  0.8268  9.433920 12.650100  9.239490
72   1  0.7870  9.418820 12.620200 15.248300
73   1  0.7591 15.486100  0.061190  3.141660
74   1  0.8480 15.517900  0.176412  8.910200
75   1  0.8000 15.437400 18.393100 15.095000
76   1  0.8164 15.228000  6.164560  3.038550
77   1  0.7685 15.255300  6.468280  9.132910
78   1  0.8167 15.138500  6.271270 15.408800
79   1  0.7433 14.926600 12.456000  3.116330
80   1  0.7993 15.292600 12.380100  9.082090
81   1  0.7984 16.048300 12.628900 14.883000
82   1  0.7334  3.274510  3.169920 -0.293068
83   1  0.7960  2.877850  3.452310  6.070630
84   1  0.7603  3.060640  3.300470 11.984700
85   1  0.7877  3.123180  9.399470  0.024543
86   1  0.8526  2.926450  9.208860  6.093190
87   1  0.7554  3.150580  9.677840 12.040600
88   1  0.8009  3.506710 15.407500  0.062841
89   1  0.7769  3.585070 15.372700  6.496050
90   1  0.7652  3.549410 15.336000 12.343200
91   1  0.8209  9.558590  3.345710 -0.254212
92   1  0.7451  9.027960  3.397580  6.036660
93   1  0.7934  9.545220  3.222610 12.503800
94   1  0.7812  9.625960  9.166170 -0.067423
95   1  0.7674  9.571250  9.093000  5.821940
96   1  0.7764  9.398590  9.722170 12.461100
97   1  0.7788  9.287960 15.290200  0.131572
98   1  0.8661  8.994250 15.262600  6.074110
99   1  0.7960  9.252150 15.586200 11.802100
100  1  0.8187 15.325400  3.413280 -0.104972
101  1  0.8186 15.459900  3.110570  6.386060
102  1  0.8070 15.413100  3.186400 12.448700
103  1  0.8228 15.780000  9.747830 -0.008647
104  1  0.8127 15.389500  9.359200  6.257530
105  1  0.7996 15.591500  9.402560 12.363600
106  1  0.8103 15.547400 15.377500 17.993700
107  1  0.7352 15.546500 15.540000  6.119080
108  1  0.8113 15.328800 15.630700 12.082400
109  2 -0.8071  3.055420  0.160042 18.259000
110  2 -0.7837  3.194740 18.245300  5.840330
111  2 -0.8162  3.244880  0.369260 12.129800
112  2 -0.8219  3.094950  6.373660 18.266700
113  2 -0.8012  2.884360  6.235170  6.095330
114  2 -0.7540  3.093210  6.583160 12.429000
115  2 -0.8097  3.517170 12.264100  0.081095
116  2 -0.7338  3.291540 12.264100  6.146210
117  2 -0.9015  3.517150 12.305800 11.968500
118  2 -0.7694  9.462830 18.363000 18.358000
119  2 -0.7340  9.192500  0.283499  6.244820
120  2 -0.7876  9.092930  0.394454 12.268300
121  2 -0.7304  9.382640  6.342480 -0.037819
122  2 -0.9108  9.243410  6.353780  6.041000
123  2 -0.7209  9.223120  6.608430 12.092600
124  2 -0.7503  9.120220 12.459800 18.244800
125  2 -0.7002  9.479350 12.260400  5.920280
126  2 -0.8125  9.422460 12.748200 12.064800
127  2 -0.7756 15.422800 18.480100 18.212400
128  2 -0.8555 15.385100 18.318000  6.090410
129  2 -0.7849 15.587400  0.346495 12.192700
130  2 -0.8173 15.400100  6.336850 -0.100373
131  2 -0.7550 15.275400  6.433850  6.206870
132  2 -0.7722 15.544100  6.512330 12.370800
133  2 -0.8238 15.639600 12.622500 -0.193022
134  2 -0.8570 15.423600 12.364300  6.119080
135  2 -0.7571 15.459700 12.682800 12.134100
136  2 -0.7755  3.489930  3.273560  3.140970
137  2 -0.8536  3.085890  3.380680  8.855770
138  2 -0.8024  3.131310  3.195100 15.200000
139  2 -0.7579  3.272800  9.364820  3.258140
140  2 -0.7776  3.020220  9.582930  8.868180
141  2 -0.7383  3.077720  9.115950 15.294600
142  2 -0.7699  3.515410 15.163700  2.937910
143  2 -0.8357  3.683350 15.618600  9.309740
144  2 -0.8660  3.303690 15.254500 15.090900
145  2 -0.7617  9.544830  3.628330  3.017650
146  2 -0.7383  9.508400  3.229980  9.358900
147  2 -0.8554  9.431830  3.198240 15.223700
148  2 -0.8104  9.455650  9.592890  2.995400
149  2 -0.7572  9.375640  9.474890  9.112720
150  2 -0.9016  9.312500  9.581730 15.335800
151  2 -0.8138  9.347960 15.279800  3.248930
152  2 -0.8467  9.124760 15.466800  8.904150
153  2 -0.7492  9.351830 15.593200 14.994800
154  2 -0.7262 15.627500  3.328670  3.009100
155  2 -0.7460 15.416400  2.978200  9.230700
156  2 -0.8387 15.345600  3.217400 15.361600
157  2 -0.7592 15.253400  9.468860  3.001500
158  2 -0.8331 15.286900  9.444150  9.278390
159  2 -0.7368 15.609600  9.483060 15.469900
160  2 -0.8130 15.682100 15.287000  3.162160
161  2 -0.7917 15.489500 15.596400  9.062820
162  2 -0.7630 15.808800 15.496700 15.304600
163  2 -0.7540 18.504900  0.381638  2.948770
164  2 -0.8361  0.239345  0.222198  8.868530
165  2 -0.7636 18.491400 18.338500 15.411800
166  2 -0.7597 -0.106763  6.393020  3.140590
167  2 -0.8286  0.071483  6.453440  9.375790
168  2 -0.7185  0.122466  6.555410 15.426400
169  2 -0.7389  0.515952 12.489700  2.857260
170  2 -0.7609  0.178885 12.385300  9.047190
171  2 -0.8376 18.734500 12.494200 14.903200
172  2 -0.7945  6.083250 18.427300  3.391040
173  2 -0.7632  6.469770 18.323400  8.988020
174  2 -0.7970  6.236780 18.337000 15.205500
175  2 -0.8368  6.163060  6.499840  2.964150
176  2 -0.8086  6.328830  6.352200  9.305920
177  2 -0.7794  6.214690  6.060530 15.447500
178  2 -0.7588  6.756300 12.013600  2.817360
179  2 -0.8080  6.654920 12.383100  9.278980
180  2 -0.8560  6.330640 12.342800 15.193800
181  2 -0.7730 12.210900 18.446700  3.076570
182  2 -0.8002 12.409300  0.463753  9.408920
183  2 -0.8467 12.422800  0.164487 15.067900
184  2 -0.7616 12.316100  6.077390  3.088130
185  2 -0.7913 12.341600  6.415940  8.995440
186  2 -0.7456 12.309300  6.412890 15.222700
187  2 -0.8696 12.234300 12.372800  3.004640
188  2 -0.8087 12.392600 12.468700  9.220700
189  2 -0.7801 12.362300 12.481700 15.132100
190  2 -0.7924  0.196633  3.228730 -0.146114
191  2 -0.8550  0.061656  3.405050  6.228440
192  2 -0.7709 18.323300  3.516790 12.091800
193  2 -0.8867 18.410600  9.639470 -0.139696
194  2 -0.7664 18.223700  9.138490  6.130540
195  2 -0.8223 18.324300  9.376930 12.086400
196  2 -0.7266  0.479124 15.459800 18.253200
197  2 -0.7514 18.710700 15.272100  5.644810
198  2 -0.8155  0.174540 15.372900 11.929500
199  2 -0.8030  6.489800  3.532080 -0.057935
200  2 -0.8194  6.277540  3.112250  5.969760
201  2 -0.6933  6.282160  2.981080 11.944700
202  2 -0.7895  6.376620  9.329690 18.387100
203  2 -0.7443  6.189140  9.229440  6.198150
204  2 -0.7963  6.684080  9.441010 12.348500
205  2 -0.7810  6.458460 15.400600 -0.043863
206  2 -0.8217  6.433580 15.565700  6.532940
207  2 -0.8396  6.400800 15.205500 12.373500
208  2 -0.7776 12.384000  3.279820 -0.038136
209  2 -0.7089 12.496600  3.199380  6.284220
210  2 -0.8242 12.505700  3.260380 12.382500
211  2 -0.7902 12.601900  9.483130 -0.012358
212  2 -0.8159 12.544000  9.213730  5.834200
213  2 -0.7990 12.492600  9.373690 12.425500
214  2 -0.7924 12.494500 15.429600 17.934100
215  2 -0.7665 11.919100 15.304500  5.825400
216  2 -0.8410 12.307500 15.392900 12.130900

