Generated by pymatgen.io.lammps.data.LammpsData

8  atoms

2  atom types

0.000000 5.452441  xlo xhi
0.000000 5.394813  ylo yhi
0.000000 5.316658  zlo zhi
-0.790640 -0.790640 -0.914958  xy xz yz

Masses

1  208.9804
2   78.9600

Atoms

1  1  1.935581  2.239927 2.658329
2  1  0.000000  0.000000 0.000000
3  2  3.249960  3.760977 0.382488
4  2  3.249960 -0.260913 3.771361
5  2  0.621201  4.740768 1.545296
6  2  0.621201  0.718878 4.934170
7  2  4.600583  1.302078 1.545296
8  2 -0.729421  3.177776 3.771361

