Generated by pymatgen.io.lammps.data.LammpsData

320  atoms

  2  atom types

0.000000 24.637781  xlo xhi
0.000000 17.058433  ylo yhi
0.000000 27.370788  zlo zhi

Masses

1  208.9804
2   78.9600

Atoms

1    1  0.7042 21.708500 18.058800  0.508500
2    1  0.7334 -1.593840 18.412900 14.498100
3    1  0.7353 21.691500 10.013700  0.445387
4    1  0.7266 -1.520740  9.512950 13.896300
5    1  0.7326  9.337880 18.423600  0.825803
6    1  0.7180 10.754500  1.526850 14.038000
7    1  0.7557  9.181310  9.992350  0.689316
8    1  0.7035 10.670300  9.783450 14.457300
9    1  0.8063  3.962330  5.577080 10.202100
10   1  0.7968  3.429850  5.518440 23.896900
11   1  0.7325  3.935530 14.005400 10.395400
12   1  0.7572  3.364530 13.982300 23.737500
13   1  0.7770 16.548500  5.426450  9.976540
14   1  0.7516 15.735900  5.391990 23.950600
15   1  0.7440 16.785900 14.132200 10.340400
16   1  0.7593 15.498100 13.954500 23.750700
17   1  0.7121  4.391130  5.425140  6.081040
18   1  0.7450  3.370240  5.378830 19.658200
19   1  0.7436  4.499860 14.174600  6.307160
20   1  0.7703  3.259850 13.970600 19.499700
21   1  0.7292 16.651500  5.541780  5.589490
22   1  0.7439 15.285100  5.443900 19.877500
23   1  0.7101 16.737700 14.321900  5.949900
24   1  0.7434 15.277500 13.822900 19.873100
25   1  0.7490 -1.872030 18.192800 10.159100
26   1  0.8263 21.629200 18.132400 23.381100
27   1  0.7630 -1.706110  9.566850  9.537840
28   1  0.7405 22.066700  9.829680 23.756300
29   1  0.7919 10.433900  1.190620 10.131800
30   1  0.7609  9.539480 18.350500 23.973200
31   1  0.7406 10.350800  9.755130 10.148600
32   1  0.7731  9.534370  9.943240 23.498800
33   1  0.7008 21.838600  5.420350  0.480253
34   1  0.7286 -1.758260  5.625660 14.233900
35   1  0.7108 21.632000 14.079400  0.180393
36   1  0.7155 -1.622650 13.876000 14.338500
37   1  0.7395  9.030840  5.421890  0.596114
38   1  0.7278 10.679500  5.553450 14.299400
39   1  0.7409  9.120330 14.216100  0.633133
40   1  0.7493 10.678200 14.112500 14.400800
41   1  0.7923 -2.025830  5.341630 10.101900
42   1  0.7742 21.876000  5.417580 23.838300
43   1  0.7756 -1.945550 13.764400 10.097200
44   1  0.7965 21.886600 13.959700 23.573500
45   1  0.7952 10.337200  5.561100 10.086600
46   1  0.7647  9.560520  5.595330 23.882100
47   1  0.8059 10.386700 14.229100 10.161800
48   1  0.7794  9.494090 14.009900 23.816900
49   1  0.7106  4.725060  1.309210  6.244000
50   1  0.7415  3.041440 18.197600 19.586700
51   1  0.7629  4.598180  9.814560  6.402140
52   1  0.7535  3.230310  9.689530 19.754000
53   1  0.7217 16.738800  1.327140  5.966440
54   1  0.7175 15.631300 18.302400 19.708300
55   1  0.7045 16.537000  9.954460  5.645670
56   1  0.7188 15.323600  9.877200 19.634600
57   1  0.7619  4.087070  1.368810 10.238700
58   1  0.7778  3.210520 18.243400 23.703100
59   1  0.7941  4.289880  9.673890 10.491700
60   1  0.7679  3.543330  9.645120 23.850300
61   1  0.7407 16.647300  1.386810 10.143500
62   1  0.7311 15.567100 18.260900 24.034300
63   1  0.7699 16.642100  9.641260  9.763320
64   1  0.7648 15.738300  9.814030 23.657800
65   1  0.7519  0.053811  7.539160 25.911000
66   1  0.8696  0.983332  7.408530 12.058100
67   1  0.8239  0.018458 16.094100 25.723200
68   1  0.8063  1.070940 16.081200 12.200400
69   1  0.7563 12.242600  7.782150 26.214000
70   1  0.7811 13.337600  7.815190 11.903700
71   1  0.7893 12.356400 16.587400 26.260200
72   1  0.7986 13.334400 16.475600 12.185400
73   1  0.7893  6.668710  7.736150 25.932200
74   1  0.7892  7.477640  7.869150 12.571500
75   1  0.8140  6.499250 16.229000 25.523200
76   1  0.8105  7.853170 16.241200 12.627500
77   1  0.7993 18.958400  7.567430 25.549400
78   1  0.7558 19.824200  7.500400 12.388100
79   1  0.8116 18.891400 16.112800 25.537000
80   1  0.7479 19.738500 16.193700 12.631900
81   1  0.7847  0.081015  3.185350 25.935700
82   1  0.7808  0.659759  3.234270 12.041600
83   1  0.7534  0.149813 11.921900 26.040900
84   1  0.7938  0.792197 11.648000 11.979400
85   1  0.7355 12.526500  3.564660 26.429500
86   1  0.8213 13.301600  3.460810 11.810000
87   1  0.7681 12.090000 11.913400 25.924000
88   1  0.7892 13.226100 12.215600 11.887700
89   1  0.8166  6.475120  3.317920 25.658100
90   1  0.8006  7.604830  3.261260 12.524100
91   1  0.8595  6.588890 12.039400 25.659800
92   1  0.7700  7.809780 12.034200 12.709400
93   1  0.8367 18.925900  3.106830 25.511600
94   1  0.7648 19.729800  3.401380 12.396700
95   1  0.8210 18.902700 12.063400 25.477700
96   1  0.7570 19.786100 11.781800 12.191600
97   1  0.7756  1.420160  7.408090  7.609420
98   1  0.8091  0.490219  7.702040 21.964200
99   1  0.8123  1.281420 16.059800  8.119450
100  1  0.8421  0.321081 16.099000 21.843900
101  1  0.7693 13.416500  7.901740  7.646240
102  1  0.8488 12.832600  7.666680 21.974300
103  1  0.7969 13.598400 16.414800  7.902240
104  1  0.8139 12.886100 16.388100 21.968100
105  1  0.7954  6.955680  7.630910  8.416230
106  1  0.7752  6.260780  7.509030 21.865300
107  1  0.7590  7.218520 16.215600  8.540240
108  1  0.7493  6.108450 16.200500 21.438900
109  1  0.8269 19.546600  7.342090  8.243510
110  1  0.7614 18.574600  7.636970 21.499200
111  1  0.8100 19.609300 16.287600  8.342910
112  1  0.7988 18.411800 16.207700 21.456700
113  1  0.7787  1.465170  3.424700  7.999220
114  1  0.8223  0.289526  3.355800 21.986100
115  1  0.7713  1.563830 11.960100  8.190920
116  1  0.8545  0.628489 11.834700 21.829400
117  1  0.8147 13.592700  3.569690  7.871540
118  1  0.8064 12.459900  3.441230 22.013100
119  1  0.8047 13.781100 12.282400  7.737860
120  1  0.8443 12.704200 11.828900 21.815800
121  1  0.7660  7.309900  3.458340  8.409780
122  1  0.7703  6.083060  3.342040 21.604000
123  1  0.8288  7.071030 12.081300  8.699400
124  1  0.7745  6.341150 11.920500 21.473200
125  1  0.8144 19.415300  3.173020  8.365540
126  1  0.7875 18.494500  3.148600 21.579800
127  1  0.7994 19.426100 11.932600  8.242600
128  1  0.7614 18.457000 11.890100 21.277600
129  2 -0.7429  7.072760  5.504260 10.517600
130  2 -0.8169  6.317640  5.272510 23.807400
131  2 -0.8090  7.631770 14.118200 10.741500
132  2 -0.8106  6.499300 14.021900 23.582200
133  2 -0.8305 19.541000  5.468760 10.066200
134  2 -0.7756 18.771900  5.330860 23.612800
135  2 -0.8178 19.593700 14.020200 10.144000
136  2 -0.7999 18.761300 13.982200 23.386500
137  2 -0.8014  1.133190  5.593720  9.942690
138  2 -0.8072  0.312298  5.335290 23.974700
139  2 -0.8469  1.030830 14.004100 10.188100
140  2 -0.8091  0.161272 13.861300 23.767800
141  2 -0.7785 13.358600  5.550360  9.805220
142  2 -0.7779 12.522000  5.618350 24.019600
143  2 -0.7703 13.335300 14.258900  9.899170
144  2 -0.7363 12.436500 14.134700 24.097500
145  2 -0.0837 20.363700  3.313870  3.503840
146  2 -0.0887 -0.298219  3.380650 17.408400
147  2 -0.0679 20.178500 12.193800  3.729650
148  2 -0.0880 -0.215593 11.795000 17.193700
149  2 -0.0992  7.888770  3.510120  3.664280
150  2 -0.1145 11.864600  3.313880 17.184200
151  2 -0.0701  7.891470 11.928200  3.889820
152  2 -0.1357 11.923500 12.028700 17.134400
153  2 -0.0968 20.366500  7.737540  3.455440
154  2 -0.0824 -0.127693  7.863400 17.329000
155  2 -0.0940 20.146100 16.191600  3.599030
156  2 -0.1266 -0.254277 16.011700 17.199200
157  2 -0.1339  8.062460  7.619030  3.341150
158  2 -0.1109 11.953500  7.568910 17.291300
159  2 -0.1290  8.013590 16.305300  3.662490
160  2 -0.0791 11.782300 16.198400 17.170400
161  2 -0.8034  7.330470  1.331340 10.590700
162  2 -0.8110  6.179470 18.195000 23.587900
163  2 -0.7996  7.210360  9.796710 10.463000
164  2 -0.8096  6.478140  9.863760 23.761700
165  2 -0.8264 19.658500 18.385600 10.512100
166  2 -0.8529 18.799700  1.049240 23.556300
167  2 -0.7745 19.600700  9.576470 10.174300
168  2 -0.7736 18.876000  9.843920 23.424500
169  2 -0.8144  1.262430 18.119600 10.111200
170  2 -0.8045 -0.040919  1.074930 23.772100
171  2 -0.7714  1.136570  9.473930 10.075900
172  2 -0.8147  0.603555  9.743030 23.899500
173  2 -0.8126 13.263400 18.393600 10.013900
174  2 -0.8226 12.313800 18.347400 24.112700
175  2 -0.7560 13.554300  9.948460  9.704460
176  2 -0.8050 12.449700  9.784010 23.729800
177  2 -0.0970  5.755490  3.285670  3.141710
178  2 -0.1203  1.902300  3.225790 16.876300
179  2 -0.1020  5.790190 11.963600  3.343510
180  2 -0.0860  1.972470 11.899500 16.569800
181  2 -0.1025 18.237400  3.294390  2.861030
182  2 -0.0812 14.097700  3.535440 16.616400
183  2 -0.1092 18.100000 12.231200  3.043740
184  2 -0.0919 14.116700 12.079700 16.540900
185  2 -0.0927  5.922320  7.850540  2.746680
186  2 -0.1000  1.982880  7.755710 16.794200
187  2 -0.0936  5.802750 16.228400  3.188450
188  2 -0.1094  1.992210 16.056900 16.621600
189  2 -0.1135 18.270000  7.861070  2.791800
190  2 -0.1125 14.130600  7.472010 16.819700
191  2 -0.1065 18.004000 16.258800  2.961110
192  2 -0.0849 13.897600 16.077300 16.682100
193  2 -0.4499  1.595020  5.047760  5.742500
194  2 -0.4034  0.472437  5.465600 19.877700
195  2 -0.4278  1.690430 14.172300  6.032780
196  2 -0.4095  0.442787 13.886700 19.812800
197  2 -0.4278 13.654100  5.672270  5.713240
198  2 -0.4267 12.459400  5.623040 20.144600
199  2 -0.4485 13.728200 14.446900  5.899580
200  2 -0.4293 12.509500 14.009000 20.145400
201  2 -0.4032  7.383530  5.575880  6.266080
202  2 -0.4110  6.180320  5.505710 19.528300
203  2 -0.4623  7.293910 14.044000  6.715960
204  2 -0.4213  5.979730 14.123800 19.215100
205  2 -0.3788 19.533100  5.280020  6.125880
206  2 -0.3837 18.234500  5.455120 19.361200
207  2 -0.3765 19.726400 14.161400  6.252700
208  2 -0.4119 18.201300 13.940100 19.262300
209  2 -0.9129 -1.796380  7.529990 11.987600
210  2 -0.9035 21.833000  7.562670 25.813100
211  2 -0.8527 -1.898720 16.262900 12.466200
212  2 -0.9026 21.794900 16.074600 25.468800
213  2 -0.9003 10.288100  7.542700 12.090500
214  2 -0.8909  9.404020  7.762440 25.910100
215  2 -0.9505 10.548200 16.267800 12.110700
216  2 -0.8787  9.351190 16.256300 25.973900
217  2 -0.9298 -2.090800  3.439660 12.138600
218  2 -0.8685 21.698800  3.141840 25.464900
219  2 -0.9223 -1.833110 11.846700 12.074800
220  2 -0.9326 21.802200 11.851700 25.631500
221  2 -0.9266 10.482600  3.548590 12.111900
222  2 -0.8963  9.378770  3.388660 26.024500
223  2 -0.9113 10.440200 11.961800 12.271600
224  2 -0.9156  9.297580 12.186100 25.968100
225  2 -0.4723  0.032590 18.017000  0.244399
226  2 -0.4183  1.260250 18.282200 14.056700
227  2 -0.4182 -0.182516  9.753350  0.889729
228  2 -0.4672  1.071770  9.534310 13.940200
229  2 -0.4572 12.151400  1.297010  1.069910
230  2 -0.3987 13.612500  1.385390 14.182600
231  2 -0.4301 12.012700  9.962520  0.926261
232  2 -0.4247 13.484200  9.908640 13.812300
233  2 -0.3756  6.366640 18.178300  0.456112
234  2 -0.4778  7.999200  1.128790 14.493200
235  2 -0.4872  6.546460  9.962620  0.161800
236  2 -0.4345  7.718420  9.802670 14.721000
237  2 -0.4291 18.830000  1.057660  0.185711
238  2 -0.3758 20.122500 18.410900 14.875300
239  2 -0.3885 18.876600 10.027200  0.198928
240  2 -0.3560 20.010000  9.649360 14.543700
241  2 -0.9219  4.176840  7.706650  8.317690
242  2 -0.9121  3.386650  7.630380 21.831100
243  2 -0.9038  4.203860 16.218900  8.290550
244  2 -0.9087  3.145370 16.074800 21.753500
245  2 -0.8522 16.539100  7.584780  7.854520
246  2 -0.8980 15.587800  7.538290 21.818700
247  2 -0.8918 16.695800 16.291400  8.297370
248  2 -0.9256 15.566300 16.019300 21.782900
249  2 -0.9283  4.310410  3.575390  8.138730
250  2 -0.8897  3.290610  3.409400 21.815400
251  2 -0.9138  4.251290 11.929900  8.397710
252  2 -0.9097  3.294890 12.030800 21.583500
253  2 -0.8995 16.527200  3.512410  8.089640
254  2 -0.9102 15.512200  3.437460 21.909700
255  2 -0.8750 16.604500 12.104600  8.033150
256  2 -0.9793 15.331500 11.826600 21.731300
257  2 -0.4117  6.276450  5.225910  0.469098
258  2 -0.3869  7.822770  5.667460 14.749400
259  2 -0.3978  6.299660 14.040300  0.325117
260  2 -0.4226  8.126860 14.093500 14.919600
261  2 -0.4238 19.047800  5.437210  0.263680
262  2 -0.4466 20.254800  5.683140 14.704200
263  2 -0.4661 18.885000 13.972100  0.153050
264  2 -0.3948 20.018100 13.659800 14.563000
265  2 -0.3851  0.166379  5.381500  0.852868
266  2 -0.4677  1.022930  5.249530 13.916800
267  2 -0.4579 -0.185186 14.328600  0.545432
268  2 -0.3650  1.423020 13.846800 14.176900
269  2 -0.4403 11.894400  5.567090  1.105660
270  2 -0.3858 13.512600  5.537210 14.080000
271  2 -0.3572 12.238300 13.985500  0.873441
272  2 -0.4171 13.527000 14.158500 14.110800
273  2 -0.4114 -1.935310  3.157220  8.023630
274  2 -0.4410 21.712800  3.511360 21.738900
275  2 -0.4713 -2.052880 11.886100  8.025210
276  2 -0.4017 22.151400 11.831300 21.585800
277  2 -0.4835 10.442600  3.394710  8.292230
278  2 -0.4598  9.517040  3.630340 21.902700
279  2 -0.3890 10.258300 11.929300  8.188530
280  2 -0.4859  9.581270 12.003700 21.742500
281  2 -0.4790 -2.030960  7.110170  8.058480
282  2 -0.4229 22.129400  7.432630 21.687500
283  2 -0.4710 -1.799590 16.044900  8.276200
284  2 -0.4235 22.041000 15.948100 21.442500
285  2 -0.4344 10.064700  7.675360  8.062370
286  2 -0.4383  9.594200  7.734880 21.870100
287  2 -0.4569 10.269100 16.313200  8.151990
288  2 -0.3907  9.716320 16.322500 21.720400
289  2 -0.3812  7.492170  1.352210  6.092770
290  2 -0.4308  5.711300 18.283600 19.188200
291  2 -0.4533  7.169440 10.038400  6.712540
292  2 -0.4521  5.984830  9.558730 19.666300
293  2 -0.4753 19.485700  1.366450  6.324710
294  2 -0.5036 18.524700 18.178400 19.687800
295  2 -0.3955 19.486500  9.804390  6.007000
296  2 -0.4243 18.219500  9.816600 19.269700
297  2 -0.3715  1.662480 18.437300  5.917300
298  2 -0.4499  0.325951  1.174550 19.906600
299  2 -0.4684  1.784820  9.985570  6.034250
300  2 -0.4350  0.327900  9.787480 20.023000
301  2 -0.4290 13.986800  1.535950  5.612490
302  2 -0.4278 12.844300  1.186710 19.781000
303  2 -0.4474 13.767200 10.432000  5.593730
304  2 -0.4375 12.553200  9.812980 19.874100
305  2 -0.3964  3.906680  3.475160 12.213100
306  2 -0.4603  3.277450  3.341120 25.627200
307  2 -0.4193  3.938760 11.550400 12.449100
308  2 -0.4118  3.639080 11.996500 25.937000
309  2 -0.4881 16.054900  3.471840 12.102700
310  2 -0.4694 15.970800  3.194400 26.062400
311  2 -0.3969 16.564300 11.607800 12.124400
312  2 -0.4323 15.696200 11.614100 25.682800
313  2 -0.4114  4.000310  7.442600 12.368100
314  2 -0.4441  3.308580  7.675440 25.875500
315  2 -0.4091  4.166600 16.058600 12.338200
316  2 -0.4394  3.382890 16.198500 25.702400
317  2 -0.4323 16.392800  7.844200 11.953900
318  2 -0.4293 15.873800  7.785770 25.876700
319  2 -0.4402 16.496600 16.410900 12.451600
320  2 -0.4705 15.518300 16.224600 25.774500

