Generated by pymatgen.io.lammps.data.LammpsData

320  atoms

  2  atom types

0.000000 16.864293  xlo xhi
0.000000 23.165087  ylo yhi
0.000000 24.472453  zlo zhi

Masses

1  208.9804
2   78.9600

Atoms

1    1  0.7975  0.268367 11.163100 10.684500
2    1  0.7461  0.916606 12.159600 23.301400
3    1  0.8417  0.640908 22.948700 10.269300
4    1  0.8347  1.680950 21.520300 23.107700
5    1  0.7544  4.264100 11.624300 10.395100
6    1  0.7273  5.261690 11.999600 22.254500
7    1  0.9110  4.997070  0.245970 10.920200
8    1  0.7446  5.618700  0.418632 22.839200
9    1  0.8358  8.224830 12.948000  9.898020
10   1  0.8143  9.485460 11.579500 21.206100
11   1  0.7525  8.893620 -0.072252 11.280300
12   1  0.7202  7.276190 20.497700 22.524600
13   1  0.8380 12.464000 10.326600  9.901820
14   1  0.8631 13.496400 11.727100 22.858900
15   1  0.8483 13.600800 22.365200 11.004400
16   1  0.8476 12.730300  0.231614 22.603800
17   1  0.6923  2.825100  0.804222  2.316920
18   1  0.8678  3.088810  1.673030 15.166000
19   1  0.6741  2.222640 12.560600  3.119730
20   1  0.8602  2.027070 12.271800 15.189000
21   1  0.7936  7.633740  3.317670  2.759830
22   1  0.8075  7.583360  0.591209 14.904100
23   1  0.7379  6.594860 11.764600  1.230330
24   1  0.8328  6.914780 12.126000 14.561000
25   1  0.6740 11.133200  1.188630  2.815320
26   1  0.8353 11.736100 23.047400 15.367600
27   1  0.7284 11.075200 12.568200  1.931640
28   1  0.8678 10.757100 12.456200 14.152100
29   1  0.7693 15.121400  1.422030  2.531540
30   1  0.8149 15.090000 23.099000 14.398800
31   1  0.8746 15.423200 12.390200  1.758050
32   1  0.8668 14.823100 12.493700 14.213100
33   1  0.8307  2.881120  6.571980  9.135150
34   1  0.7895  2.700790  5.479980 20.539200
35   1  0.8307  2.769730 16.817600  9.120560
36   1  0.8794  2.872900 17.192000 19.692700
37   1  0.8084  7.188000  6.224640  9.317990
38   1  0.8593  7.720650  4.722310 20.683300
39   1  0.8343  7.002940 16.870600  8.937720
40   1  0.7402  7.199910 18.148900 20.213000
41   1  0.8518 11.227200  7.283010  7.757760
42   1  0.7752 12.221500  5.606420 20.577700
43   1  0.8557 11.279000 17.771400  9.019670
44   1  0.8361 10.688300 17.502500 20.645800
45   1  0.8902 15.583500  6.702860  8.795290
46   1  0.7530 15.179300  5.891220 21.233000
47   1  0.8176 15.542400 17.569200  8.812310
48   1  0.8537 15.931300 17.964700 21.281500
49   1  0.8898  1.195530  7.169660  4.874290
50   1  0.7144  0.777486  6.163120 16.313500
51   1  0.7388  0.738674 17.229800  4.356690
52   1  0.9415  1.012180 17.890700 16.901000
53   1  0.7036  4.869190  6.670780  5.590030
54   1  0.7692  4.634600  5.726540 16.597500
55   1  0.7528  4.300450 18.233500  5.068220
56   1  0.8458  5.001880 17.303200 16.713000
57   1  0.7497  9.109310  7.577870  4.248030
58   1  0.8063  8.943530  7.870070 16.058300
59   1  0.8136  9.605270 19.070800  3.076570
60   1  0.8965  9.172950 18.475300 16.727800
61   1  0.8918 13.542800  6.316460  4.150610
62   1  0.8916 13.219700  6.119930 16.284200
63   1  0.8396 13.272900 17.694200  4.851620
64   1  0.7621 13.881800 19.024300 16.203700
65   1  0.7568  1.501290  2.314080  7.097550
66   1  0.7437 -0.005685  2.491850 19.383200
67   1  0.8619 -0.308349 13.911800  6.560970
68   1  0.8661  0.777955 13.710700 18.749600
69   1  0.7409  5.022160  1.774590  5.873530
70   1  0.7127  5.118510  2.155200 19.198100
71   1  0.7032  4.236800 14.228800  6.047860
72   1  0.8629  5.156310 13.882500 18.774600
73   1  0.7611 10.599900  2.828690  8.584270
74   1  0.8061  9.287490  1.676200 18.312600
75   1  0.9081  8.953700 15.286000  6.197080
76   1  0.8096  9.482480 14.473900 17.844500
77   1  0.8435 14.079800  2.393150  6.257450
78   1  0.7315 13.963400  1.834960 17.755700
79   1  0.8638 12.743600 14.004100  6.807600
80   1  0.7627 13.839300 14.469400 18.243800
81   1  0.8068  2.648980 10.376100  6.936100
82   1  0.8329  2.794060  9.409320 19.408500
83   1  0.8191  3.253060 21.291300  7.007300
84   1  0.8116  3.403520 21.331800 18.231900
85   1  0.6861  5.787650 10.124100  5.686090
86   1  0.7617  6.922220  9.997600 18.749400
87   1  0.7720  7.167980 21.730100  7.970950
88   1  0.6352  6.952140 22.006100 19.033800
89   1  0.8391  9.896730 11.102000  5.844230
90   1  0.7215 11.186800 10.393500 18.285700
91   1  0.7708 11.234600 22.245800  6.885080
92   1  0.8470 11.362300 21.504200 19.178100
93   1  0.8887 15.061000 10.185700  7.204770
94   1  0.8695 15.591700 10.003400 19.201000
95   1  0.8046 16.305100 20.468200  5.793560
96   1  0.8434 16.520900 21.833600 18.710400
97   1  0.7466  2.211660  8.047530 13.006700
98   1  0.7640  3.515130  9.340400  0.915831
99   1  0.8305  2.395220 20.137900 13.216300
100  1  0.8237  2.275130 18.887400  0.845144
101  1  0.7707  6.492880  8.388980 13.089600
102  1  0.7904  7.660080  6.946570  0.109429
103  1  0.8309  6.519000 19.976400 13.501700
104  1  0.8092  6.731610 21.401700  2.917610
105  1  0.7994 10.666600  7.576550 12.459600
106  1  0.7937 11.683600  8.172380  1.400060
107  1  0.7973 10.990700 19.798800 12.925600
108  1  0.7613 10.797900 21.272900  0.744361
109  1  0.8749 14.832400  8.302550 13.023800
110  1  0.8831 15.973200  8.362680  0.912416
111  1  0.7534 15.454700 18.982700 12.519700
112  1  0.8161 14.185100 19.753800  1.186900
113  1  0.8398  0.723638  4.274970  0.068931
114  1  0.7881  0.265264  3.881200 12.469100
115  1  0.8678  3.112310 15.296100 23.102500
116  1  0.8210  0.435872 15.694300 12.565700
117  1  0.7026  4.094890  3.861480  0.108491
118  1  0.8034  5.080100  4.609320 12.421800
119  1  0.6542  3.952910 15.254000  2.648540
120  1  0.7938  5.256850 16.044600 13.314300
121  1  0.6569 10.641500  3.458000  0.461134
122  1  0.8051  9.212270  3.421060 12.667000
123  1  0.8137  9.799830 15.580500  0.664597
124  1  0.8560  9.615620 15.553100 12.231900
125  1  0.7382 13.894500  4.766780 24.791600
126  1  0.8030 12.827500  4.538830 11.145300
127  1  0.7940 13.682800 15.779500  0.045527
128  1  0.7793 13.157600 16.417500 14.019500
129  2 -0.4982  0.458215  4.192390  9.204620
130  2 -0.5260  0.674191  3.583390 21.649200
131  2 -0.5002  0.308059 15.317800  9.108700
132  2 -0.4650  0.070996 15.241000 20.684200
133  2 -0.4868  5.264620  4.336350  9.707580
134  2 -0.6722  5.512660  2.983520 21.489000
135  2 -0.5787  5.142230 14.853300  9.088990
136  2 -0.5948  4.647970 15.636900 20.894400
137  2 -0.6326 10.172100  5.050380 10.135400
138  2 -0.3914 10.491500  3.499610 21.718500
139  2 -0.6433  9.155860 15.155400  9.261860
140  2 -0.3780  8.613840 15.559200 21.212500
141  2 -0.5201 13.186200  4.746340  8.286650
142  2 -0.5127 13.789200  3.391810 22.003000
143  2 -0.3268 12.883300 15.299500  9.109740
144  2 -0.4238 13.227900 15.890800 21.380000
145  2 -0.5892  2.878130  9.306420  4.065710
146  2 -0.5174  2.781170  8.088940 16.364200
147  2 -0.5998  2.132570 19.586600  3.559760
148  2 -0.5964  2.929260 19.280600 16.470900
149  2 -0.5753  9.160960  5.171400  2.984930
150  2 -0.5867  6.379360  8.323670 16.258500
151  2 -0.3833  6.821240 19.421500  5.203140
152  2 -0.5383  6.615030 20.112800 16.763100
153  2 -0.4733 12.354600  9.492710  4.587110
154  2 -0.5268 11.578800  8.726220 16.180200
155  2 -0.5690 12.131400 20.085000  3.438120
156  2 -0.5984 11.159000 20.201500 15.934200
157  2 -0.3623 15.553800  8.422510  4.422970
158  2 -0.4811 15.447000  8.192130 15.880400
159  2 -0.5695 15.656400 18.391900  2.932250
160  2 -0.5093 16.568500 19.951000 15.990100
161  2 -0.5649  2.444000  9.358530  9.790360
162  2 -0.4770  2.560930  9.362400 22.597700
163  2 -0.3956  3.031810 21.068000 10.498500
164  2 -0.3438  5.693340 15.526100  0.516076
165  2 -0.4129  6.925420 10.535800  9.073200
166  2 -0.4575  6.835890  9.490940 23.170600
167  2 -0.6414  6.924250 21.562100 10.585600
168  2 -0.4877  4.175410 20.533200 21.956700
169  2 -0.5837 10.323600  9.019900 10.000900
170  2 -0.3776 11.349300  9.810710 22.096600
171  2 -0.5750 11.506200 20.644200 10.290000
172  2 -0.4364 10.257700 20.946300 22.623200
173  2 -0.6105 15.098700  9.442820  9.989860
174  2 -0.4485 15.899300  9.766660 22.670300
175  2 -0.5367 15.943400 20.770100 10.319900
176  2 -0.3932 16.243500 20.874300 21.462900
177  2 -0.4834  1.237970  3.695600  2.824790
178  2 -0.5115 17.201200  2.521700 15.757700
179  2 -0.6191  0.343121 14.465100  3.937470
180  2 -0.5134  0.284879 14.324100 15.073200
181  2 -0.5626  4.608250  3.723380  3.501680
182  2 -0.5258  5.395240  2.915170 14.726200
183  2 -0.6799  5.242930 12.757700  3.997100
184  2 -0.4603  5.437160 14.655200 15.770100
185  2 -0.3560  7.816240  2.203160  5.499460
186  2 -0.4474  9.994640  2.383840 15.783800
187  2 -0.3805  8.360420 15.888900  2.953330
188  2 -0.4567  9.049040 14.358600 15.141700
189  2 -0.5984 13.350600  3.151760  3.839390
190  2 -0.4934 13.449500  2.067850 14.793000
191  2 -0.4956 13.411500 14.149200  3.055650
192  2 -0.6430 12.761300 13.968600 15.079900
193  2 -0.5030  0.585540 11.367200  5.610300
194  2 -0.5137  1.033040 10.906400 17.647600
195  2 -0.5573  1.553800 22.566500  5.542330
196  2 -0.4876  1.658190 22.549700 16.695900
197  2 -0.6214  2.333020 12.399900  8.385600
198  2 -0.5340  4.759310 11.227000 17.821100
199  2 -0.6568  5.166230 22.305600  5.245580
200  2 -0.6373  5.247330  0.521086 16.980000
201  2 -0.5510 10.063900 13.534100  4.562170
202  2 -0.6627  9.056650 11.524000 16.532800
203  2 -0.3109 10.288400  2.533960  5.483660
204  2 -0.6398  8.988820 22.476200 17.127600
205  2 -0.4043 14.452600 12.076800  5.123370
206  2 -0.5129 14.474400 11.759600 17.289400
207  2 -0.4675 13.438600 22.911100  4.588260
208  2 -0.7054 13.885900 22.270800 16.918300
209  2 -0.5955  3.243230  0.832188  8.619740
210  2 -0.4827  1.434650  0.012878 20.579200
211  2 -0.5062  8.437760 10.770200  3.498000
212  2 -0.6159  2.744530 12.639400 20.479900
213  2 -0.4607  6.935020  1.498350  8.658020
214  2 -0.5969  7.920110 -0.176309 21.799700
215  2 -0.4537  7.788910 12.831500  6.734740
216  2 -0.6884  7.392700 12.452700 20.061600
217  2 -0.6326 12.467200  0.846582  8.374840
218  2 -0.5652 11.339400  1.328360 19.650700
219  2 -0.5084 11.041400 12.497800  8.297900
220  2 -0.5353 11.826600 12.797600 20.181000
221  2 -0.4809 16.201500  0.455369  7.535620
222  2 -0.4849 14.551300  0.355169 20.157600
223  2 -0.4738 14.432900 12.407200  8.927590
224  2 -0.4772 15.317000 12.399700 20.687500
225  2 -0.4248  1.947590  7.316200  1.574860
226  2 -0.6692  2.426400  5.107180 13.472000
227  2 -0.5780  1.889490 15.691600  0.751869
228  2 -0.5056  2.639830 16.438800 15.017800
229  2 -0.4838  7.618930  3.927130 24.267800
230  2 -0.2393  8.453750  5.007600 15.872500
231  2 -0.5661  8.271380 20.204100  0.880468
232  2 -0.5639  6.890210 17.356600 14.915300
233  2 -0.7161 12.112200  5.699110  2.155580
234  2 -0.4516 11.144900  5.621100 14.247700
235  2 -0.6615 11.727200 17.026500  1.510310
236  2 -0.5333 10.311800 16.671900 14.440300
237  2 -0.5974 15.529400  5.684110  1.867660
238  2 -0.4646 14.581700  5.263940 14.099800
239  2 -0.4273 16.572200 18.134100 24.415000
240  2 -0.6824 15.613100 17.199000 14.797000
241  2 -0.5911 -0.150739  7.009130 11.622000
242  2 -0.4998  0.221165  6.472650 23.272000
243  2 -0.5625  1.455740 18.263600 11.293500
244  2 -0.5069  2.173500 17.792500 22.080100
245  2 -0.6616  4.696320  7.443670 11.585000
246  2 -0.4252  4.622310  6.287610 22.797000
247  2 -0.4921  5.073030 18.453200 11.762800
248  2 -0.4787  5.052910 18.074100  2.685030
249  2 -0.6389  8.060160  6.194450 12.508700
250  2 -0.3975  9.462560  6.260380 22.470800
251  2 -0.5236  8.550210 18.421100 10.833300
252  2 -0.4467  9.692950 17.747600 23.371800
253  2 -0.6153 13.248800  7.213560 10.970100
254  2 -0.5073 13.531900  7.447170 23.359100
255  2 -0.6052 12.782000 17.705800 11.475100
256  2 -0.4221 13.508700 19.854600 23.051400
257  2 -0.5409  0.342083 10.576500  2.237280
258  2 -0.6074 -0.141819 10.532600 13.419900
259  2 -0.3946 -0.265309 21.768300  2.234590
260  2 -0.5122  0.567020 22.187800 13.238100
261  2 -0.5789  6.029680  8.714280  2.324370
262  2 -0.5464  4.541770 10.770900 13.667100
263  2 -0.5465  3.678450 21.321500  0.371391
264  2 -0.5406  5.181780 22.085400 13.521700
265  2 -0.4986  9.513440  9.313810  0.837661
266  2 -0.6158  8.998750 10.207200 13.416300
267  2 -0.5798  9.250420 21.870100  3.813380
268  2 -0.7040  9.965070 22.275000 13.473200
269  2 -0.6088 13.683500 10.460200  1.256430
270  2 -0.5242 12.911000 10.325400 13.590100
271  2 -0.6242 13.231500 22.881600  0.875924
272  2 -0.7540 13.805100 20.899500 13.189300
273  2 -0.4877  2.813710  1.507850 12.166700
274  2 -0.4460  1.941630  1.472280 23.760300
275  2 -0.5321  2.196220 13.430900 12.523900
276  2 -0.7559  3.291140 12.745800  0.143593
277  2 -0.6576  7.191730  2.015020 11.857300
278  2 -0.6007  5.398780  1.451010  0.923040
279  2 -0.6608  7.104080 13.985500 12.319800
280  2 -0.4236  7.469370 13.205700 23.068800
281  2 -0.5598 11.500500  1.817270 11.829000
282  2 -0.5210  9.683750  0.884209  0.212123
283  2 -0.4528 11.302900 13.956300 11.691700
284  2 -0.6069 11.461100 13.118600 23.734400
285  2 -0.4846 15.065000  1.781250 11.321300
286  2 -0.5053 15.392500  2.400540 -0.152128
287  2 -0.4396 14.979400 14.573200 11.909100
288  2 -0.6148 15.455800 13.871500 23.995500
289  2 -0.5762  2.606220  5.332410  6.544340
290  2 -0.6725  2.639780  3.903620 18.063500
291  2 -0.7469  1.996220 16.119900  6.545030
292  2 -0.6565  2.884380 14.999100 18.005300
293  2 -0.3682  7.440670  5.250140  6.414130
294  2 -0.5432  6.985290  3.710060 18.085200
295  2 -0.5787  6.297320 16.113400  6.229740
296  2 -0.5947  7.741200 16.226200 17.894100
297  2 -0.4583 11.019600  5.888010  5.592730
298  2 -0.4047 11.017700  5.427870 18.168100
299  2 -0.6261 11.250900 16.707000  6.416240
300  2 -0.5394 11.298200 16.910800 17.825600
301  2 -0.4143 16.013500  4.756090  5.881590
302  2 -0.6624 14.870900  4.614070 18.209700
303  2 -0.6192 14.567300 16.347200  6.592910
304  2 -0.5213 15.953900 16.493900 18.084500
305  2 -0.5655  0.758326  8.360500  7.284470
306  2 -0.5498  0.622372  7.653320 19.790600
307  2 -0.5314  0.962378 19.399000  7.872850
308  2 -0.5756  1.110550 19.277500 19.222100
309  2 -0.6622  4.688350  8.216160  7.698550
310  2 -0.4875  4.937280  6.840020 19.326400
311  2 -0.4723  4.979720 19.243300  8.062360
312  2 -0.6739  4.634530 19.176100 19.494700
313  2 -0.5726  8.736880  8.858070  6.795840
314  2 -0.4719  8.971120  8.099120 19.293100
315  2 -0.4515  9.300890 19.930300  7.026260
316  2 -0.6990  9.173570 19.811500 19.408500
317  2 -0.6538 13.741700  8.087460  7.496850
318  2 -0.4860 13.338500  8.165620 19.777100
319  2 -0.4891 13.876500 19.591900  7.031910
320  2 -0.4838 12.762700 19.473900 19.445200

