Generated by pymatgen.io.lammps.data.LammpsData

48  atoms

 2  atom types

0.000000 12.100325  xlo xhi
0.000000 12.100326  ylo yhi
0.000000 6.997800  zlo zhi

Masses

1  106.42
2   78.96

Atoms

1   1  1.206930  0.162690  1.861650
2   1  1.740260  5.196750  1.848930
3   1 11.593300 11.905100  3.347290
4   1 11.277600  1.257740  0.834279
5   1 11.605700  5.224140  3.048910
6   1  5.160160  3.903160  4.276780
7   1  8.170510  8.725480  4.062660
8   1  3.250950  3.179440  2.715090
9   1  0.041426  9.357270  5.264070
10  1  2.548050  6.854290  5.372100
11  1  7.008060  5.023190  6.859030
12  1  5.148360 10.353700  0.502933
13  1  1.949050  4.391740  5.800440
14  1  0.850944  0.353651  5.911230
15  1  9.336430 10.707000  1.591990
16  1  9.148470  1.693210  3.340440
17  1 11.126800  5.263010  0.531693
18  1  3.246610  8.996300  3.432550
19  1  9.597010 10.827700  5.545100
20  1  3.297180  0.304024  3.729520
21  1  9.401380  8.109930  2.173960
22  1  8.349900  5.973100  3.958870
23  1  5.614710 10.865600  3.419110
24  1 10.983800  4.090820  5.317260
25  2  2.285750 10.132000  1.812980
26  2  7.877900  3.560130  4.493730
27  2  0.458565  2.452240  2.396480
28  2  5.366760  5.115070  1.354120
29  2 11.104900  9.692180  3.574370
30  2  7.325550  0.188230  2.376170
31  2  5.194480  1.292330  4.233450
32  2  3.614060  3.190550  6.867370
33  2  0.800941  7.568850 -0.177314
34  2  7.125710  8.891840  1.663540
35  2  6.142260  0.300554  7.153940
36  2 10.706500  0.715287  5.212360
37  2  7.314180 10.915500  4.996290
38  2  4.438200  6.713930  0.614821
39  2  3.623340  0.539968  1.282730
40  2  1.105320  7.685090  3.422180
41  2  4.670810  9.066270  5.368920
42  2  7.835660  6.350430  1.607230
43  2 11.224200 10.743000  0.381871
44  2  6.425510  6.481590  5.197070
45  2 -0.362153  6.316830  5.385390
46  2  2.027450  2.152280  5.161420
47  2  9.300450  3.644640  7.490540
48  2  3.703880  5.542950  2.890500

