Generated by pymatgen.io.lammps.data.LammpsData

320  atoms

  2  atom types

0.000000 24.637781  xlo xhi
0.000000 17.058433  ylo yhi
0.000000 27.370788  zlo zhi

Masses

1  208.9804
2   78.9600

Atoms

1    1  0.7044 -2.200940 18.104200  1.452940
2    1  0.8348  1.720870  1.689140 16.423700
3    1  0.6887  4.049600  9.461350  4.566810
4    1  0.7086 -1.814790  7.863790 14.921800
5    1  0.8156 12.237400  5.439610  4.155040
6    1  0.5440  8.550900 14.916700 13.752300
7    1  0.7241 17.825500 13.958100  4.556760
8    1  0.7502  8.968990  8.298080 16.484200
9    1  0.6074  4.608130  5.642210  8.485760
10   1  0.8168  1.377400 17.973000 26.743500
11   1  0.6395  1.849940 14.015200  7.977310
12   1  0.8481  4.473680 17.667000 22.945800
13   1  0.6252 14.418800  6.109730 17.899600
14   1  0.7845 15.079100  4.941840 27.165400
15   1  0.7158 15.905500 14.512700 11.390700
16   1  0.7732 17.599700 13.967000 27.489800
17   1  0.7794  3.292430 18.378700  4.795890
18   1  0.7802  4.533390  6.024880 18.226500
19   1  0.6200  4.166100 15.733400  0.761883
20   1  0.5299  4.454300 13.255500 21.512500
21   1  0.5956 17.247500  4.953660  9.048280
22   1  0.7421 16.887300  1.602050 19.166800
23   1  0.8118 18.944600 10.333400  2.005440
24   1  0.7890 16.734200  9.816010 21.098800
25   1  0.7813 -1.254420 16.776000 12.296200
26   1  0.6696 22.095900  2.236020 24.292100
27   1  0.6918 -1.740670  9.995120 11.284600
28   1  0.8261 -0.815095  7.043450 22.087100
29   1  0.7699 12.963300 16.161200  9.607150
30   1  0.7667  9.616880 17.451900 17.912000
31   1  0.6540  4.331770 16.205600 11.365700
32   1  0.6793 11.073600  8.230070 19.981800
33   1  0.6432  1.667060  6.288890  6.851780
34   1  0.6800 18.954500  5.677840 17.221600
35   1  0.8193 -1.717320 14.341600  3.399300
36   1  0.7837 -2.256460 13.028400 16.502200
37   1  0.7149 13.863000  6.684120 10.345800
38   1  0.6766  5.514160  2.518930 17.820000
39   1  0.7650  7.879850 18.271400  3.462630
40   1  0.6230  7.994040 13.904800 17.012800
41   1  0.6528 20.787700  4.174040  9.692880
42   1  0.8096  1.225060  3.106470 20.681100
43   1  0.7556 19.206300 12.023200 10.950400
44   1  0.7833 -1.736560 13.638500 21.935900
45   1  0.5353 12.032100  5.659320 13.677300
46   1  0.4573  7.167960  5.793500  0.769743
47   1  0.6499 11.296700 12.547700 14.069500
48   1  0.5355  9.900040 10.337100 25.627300
49   1  0.7462  2.359810 14.167900  4.565990
50   1  0.6961  6.611700  3.168330 21.294500
51   1  0.5572  2.331880  6.368100  2.814200
52   1  0.8325  2.114280 10.233400 15.360600
53   1  0.6820 17.667000 14.219800  7.870800
54   1  0.6780 13.198500  6.810280 23.251600
55   1  0.6318 20.632000 11.474800  6.843420
56   1  0.7961 -0.044721  6.950570 17.911500
57   1  0.6925  5.549350  2.751940  8.920120
58   1  0.6015  7.444730  4.318860 25.509200
59   1  0.6266  4.145890  6.060120 13.066500
60   1  0.5408  5.832380 13.967100 25.533600
61   1  0.4191 17.320900 18.388000  8.749430
62   1  0.6415 20.439400 16.906100 22.317800
63   1  0.7530 12.999500 12.078900  7.919150
64   1  0.7465 15.157000 10.596300 24.508900
65   1  0.7324  0.356445 10.140300 24.165300
66   1  0.6895  0.306606  4.983280 13.641500
67   1  0.4858  4.118050  4.070010  0.605817
68   1  0.6865  0.680431 13.856600 13.074900
69   1  0.4121  8.124970  7.229970 25.477700
70   1  0.6622  9.287180  4.623080 16.108600
71   1  0.7350 14.254600 15.819500  1.258670
72   1  0.8202 14.075700 16.293100 15.334100
73   1  0.6026  6.131960  9.986510 23.732000
74   1  0.7204 11.005200  2.601480 11.115700
75   1  0.6003  8.338810 15.398600 27.408900
76   1  0.7512  5.528380 12.279900  7.361490
77   1  0.5215  1.957810  7.073130 26.912000
78   1  0.6926 20.722800  3.506310 13.725300
79   1  0.6808 21.354200 15.858500 26.443100
80   1  0.7118 20.825200 18.101800 15.955500
81   1  0.6844 -0.840557  4.752930 25.622700
82   1  0.7567  1.931120  2.046560 12.221500
83   1  0.7459  2.993430 10.626000 26.805600
84   1  0.7419  4.342290 15.372100 16.036600
85   1  0.5487 11.904400  7.303050 26.518500
86   1  0.6869 13.065600  2.507370 17.504100
87   1  0.7907 14.459000 11.523800  0.298745
88   1  0.7410 15.176200 10.149200 11.880800
89   1  0.6864 15.322800  1.537180 22.650700
90   1  0.6854  6.890980  4.341690 12.617800
91   1  0.5774  8.812450 10.998000 21.417600
92   1  0.6864  6.815430 10.515300 11.283000
93   1  0.6954 20.498700  5.623870 26.145700
94   1  0.6112 17.593200 18.403800 12.217100
95   1  0.6780 21.106100 11.915200 26.018600
96   1  0.8229 19.204100  7.528130 11.182100
97   1  0.7010  0.633220  9.753150  7.289920
98   1  0.6018  4.083410  5.109340 24.550800
99   1  0.7519 -0.215902 17.356900  5.311180
100  1  0.6662 -0.999916 16.830800 18.893500
101  1  0.7099 10.972500 10.099800 10.754500
102  1  0.7189 17.165500  6.202390 21.210600
103  1  0.7232 13.541900  3.338120  8.193490
104  1  0.8017 11.955000  1.740450 25.208900
105  1  0.6430  8.145670  6.364000 10.134400
106  1  0.6127  5.535920 10.270400 19.865000
107  1  0.5586  8.224780 16.503200 10.909000
108  1  0.6643  7.284420 16.172000 20.175100
109  1  0.6223 16.954400  8.734290  8.342990
110  1  0.6795 19.222800  8.689250 23.882700
111  1  0.5278 20.148800 17.863300  9.971500
112  1  0.6072 15.611100  5.056870 14.152500
113  1  0.7246  0.964081  5.549820 10.657500
114  1  0.7884  1.290560 14.247400  0.052340
115  1  0.6859  1.618560  9.707240 10.804100
116  1  0.7304  2.813250  7.204320 22.004700
117  1  0.6760  9.389750  2.345390  6.491710
118  1  0.8400 10.690800 16.312500 21.535600
119  1  0.7030 15.216600 10.139000  5.426670
120  1  0.6086 11.082300 14.370100 25.317000
121  1  0.6424  5.555810  4.253760  4.086700
122  1  0.7998  9.862480  3.360510 21.760800
123  1  0.5757  4.274080  9.275870  8.342860
124  1  0.7680 12.092800 12.773500 18.897800
125  1  0.7969 21.980400  3.116170  4.881030
126  1  0.6793 20.956300  3.746520 19.605900
127  1  0.6954 -2.550360 14.473600  8.577980
128  1  0.7749 17.651500 16.617400 24.812100
129  2 -0.7214  3.610390  3.978780 10.863000
130  2 -0.5292  8.034890  6.858610 18.642700
131  2 -0.6013  5.847370 17.133400  9.554900
132  2 -0.4589  7.896560  2.096890 24.109300
133  2 -0.7344 18.494800  4.420020 11.284900
134  2 -0.4306 21.542100 10.790000 22.930400
135  2 -0.6851 19.565900  9.252630  9.022720
136  2 -0.6410 19.167400 14.421900 25.149100
137  2 -0.3437 19.487400  4.234470  6.227940
138  2 -0.7103  5.160110 17.919600 20.350500
139  2 -0.6234  4.200780 11.519500  9.956990
140  2 -0.5408  2.337140 12.441500 24.410900
141  2 -0.6842 16.363400  7.252210 11.291300
142  2 -0.4889 11.615800 11.218300 21.771300
143  2 -0.5991 15.400300 15.570100  8.313200
144  2 -0.5951 14.742200 17.490700 25.337600
145  2 -0.1047 16.847900  6.942990  3.844560
146  2 -0.4913  3.556420  8.510510 19.496400
147  2 -0.3445 12.877000  2.794850  0.731427
148  2 -0.4973  1.153550 17.413500 10.200400
149  2 -0.0304  8.729830 10.636200  6.079350
150  2 -0.1575 15.421300 14.486200 17.989300
151  2 -0.1375 12.173500 10.700100  4.498980
152  2 -0.5894  8.948620 11.289500 18.219300
153  2 -0.8326  3.790030  8.436350 25.331800
154  2 -0.4177  0.034918 10.086200 17.004900
155  2 -0.2575 -1.724180 11.117200  4.623390
156  2 -0.3097  5.692310  8.218270 16.462000
157  2 -0.5031  8.462170 12.432100  9.476110
158  2 -0.3661 11.667100  9.239160 16.997400
159  2 -0.0996 20.086600  5.881320  2.198540
160  2 -0.5022  2.735630  3.791110 14.265500
161  2 -0.6116  2.412280  3.824710  3.777050
162  2 -0.5744  4.392890  2.438840 25.868700
163  2 -0.5122  8.040610  9.011000  9.164060
164  2 -0.5745  6.445860  8.292770 21.555300
165  2 -0.5147 -1.305910 16.086700 16.081800
166  2 -0.6674 19.824500 18.139900 24.712500
167  2 -0.7032 -0.455764 11.850700  9.245940
168  2 -0.3428 18.201800  7.661180 27.266900
169  2 -0.6371 22.028600  2.186010 11.308700
170  2 -0.6134  5.029870  1.461860  2.647510
171  2 -0.8559  2.791410  7.356170  9.634670
172  2 -0.5453  3.624300  3.666880 21.610400
173  2 -0.4361 12.425600  1.792710 14.765000
174  2 -0.5364 12.627900 18.401600 21.784200
175  2 -0.4497 14.508900 12.927400  5.786530
176  2 -0.6677 12.605600 10.814600 24.946100
177  2 -0.5720  2.276690  8.981890  2.442040
178  2 -0.6199 -2.055580  4.854160 22.468700
179  2 -0.0808  7.808180  8.542500  5.636140
180  2 -0.5797 18.274500 11.039600 26.898800
181  2 -0.5257  7.741570  5.589970  3.265480
182  2 -0.5999 10.573800  3.774720 18.437700
183  2 -0.6468 -1.420660  7.652940 25.154700
184  2 -0.1057 20.832700 10.494900 18.474900
185  2 -0.3596 13.132200  9.388290  1.623510
186  2 -0.3763  4.475580 10.084800 13.079100
187  2 -0.5187  7.736460  2.960170  0.461093
188  2 -0.7016  6.705450 16.198100 16.384600
189  2 -0.1217 19.130200  2.424320  2.183130
190  2 -0.1219 14.086700 10.903700 17.777700
191  2 -0.2603 17.927600 16.779800  5.196550
192  2 -0.6754  9.905020 14.594200 19.778800
193  2 -0.0310  8.155950 11.447800  2.613550
194  2 -0.5717 -0.374245  2.768220 18.197400
195  2 -0.4945 -2.208970 17.082400  8.254700
196  2 -0.2872 13.296900 14.507000 22.108400
197  2 -0.5392 13.406500  4.264920 24.698900
198  2 -0.6514 15.459000  4.114350 19.745900
199  2 -0.3729 12.182200  2.472620  5.131310
200  2 -0.7792  7.487750 12.217300 23.738100
201  2 -0.1824 -1.224270  6.478420  2.806960
202  2 -0.3910  5.635440  4.193760 15.211900
203  2 -0.2713  8.434480 16.760400  6.003910
204  2 -0.4163  4.044100 12.826400 17.612500
205  2 -0.4747 22.067400  6.250150 11.795100
206  2 -0.0659 19.993700 11.627100 19.845100
207  2 -0.0453 14.238400 16.534700  5.112910
208  2 -0.4419 19.670400  7.648120 21.257200
209  2 -0.6772  0.792557  7.743880 12.609600
210  2 -0.4384  0.182642 10.808200 26.778300
211  2 -0.5509  1.594880 16.650700 14.179000
212  2 -0.6552 -0.887418 15.516400  1.016780
213  2 -0.6348  9.699820  4.422090 13.079500
214  2 -0.3313  7.380860 15.153500  2.838330
215  2 -0.1852 19.927000 13.197800 15.530200
216  2 -0.4105 11.802400 13.587600  1.422370
217  2 -0.5423 -0.832981  2.201070 14.315300
218  2 -0.5905  1.110660  3.530150 -0.099522
219  2 -0.5978 -1.119870 10.652700 13.820000
220  2 -0.4302  1.180440 12.908700  2.717290
221  2 -0.4570  8.001460  2.153540 16.076100
222  2 -0.7032 16.679900  7.973230 23.146200
223  2 -0.5825 10.975400 15.448000 15.036400
224  2  0.0515  9.026600 12.917700  3.970330
225  2 -0.6595  1.764480 16.471700  2.979880
226  2 -0.2967 17.788400 15.582100 21.590600
227  2 -0.4136 -1.537000  4.066200  8.019060
228  2 -0.6153 15.265200 13.438400 26.228600
229  2 -0.3109 18.297300  3.791040 24.995500
230  2 -0.5262 11.799900 17.020200 11.863100
231  2  0.0276 17.588500  3.523040  3.082520
232  2 -0.6602 13.432300 12.643400 10.649200
233  2 -0.3476 10.107500  5.247120  6.633570
234  2 -0.6035  8.442100 12.343300 14.571800
235  2 -0.6389  1.408120  5.033940 24.192100
236  2 -0.5131 -0.528911  7.676650  8.848810
237  2 -0.4789 11.384800  5.655390  1.598500
238  2 -0.0037 17.561600 12.063700 18.229400
239  2 -0.5088 -0.725981  2.867570  2.975320
240  2 -0.3560 19.135700  6.391820 14.154400
241  2 -0.8174  4.403060  6.766280  6.278450
242  2 -0.5607  0.867660  9.199450 21.713700
243  2 -0.5140  4.185820 14.879200  7.094610
244  2 -0.6065  2.638200 16.004300 25.732800
245  2 -0.6475 14.183300  8.977400  8.347270
246  2 -0.5348 18.994700  3.039820 21.451400
247  2 -0.7170 19.000300 14.370100 10.104700
248  2 -0.1784 18.347600 16.622500 17.099700
249  2 -0.4188  2.419830  3.194730  7.740710
250  2 -0.5990  6.644140  5.397270 22.872900
251  2 -0.5039  3.472160 13.625800 12.800400
252  2 -0.6286  6.527900 15.522500 22.814500
253  2 -0.0999 14.952900 17.857100  3.284870
254  2 -0.6204 20.088900  1.457810 18.856500
255  2 -0.6921 16.528600 12.351500  9.540910
256  2 -0.5898 10.308900 16.779500 24.849200
257  2 -0.1025 10.654300  8.848140  7.207640
258  2 -0.4800 12.591600  5.852500 20.703400
259  2 -0.5972  7.472290  9.266170 27.097700
260  2 -0.2660 -0.859902 12.307200 19.519200
261  2 -0.3883 17.297000 16.835100  0.921029
262  2 -0.5773 18.026700  3.437850 15.638100
263  2 -0.5770 20.326500 14.267100  5.646400
264  2 -0.4599 20.277500  9.419090 12.640700
265  2 -0.6074  5.932510  2.297850  5.907960
266  2 -0.5436  2.992940  3.994590 17.691200
267  2 -0.4536 -1.300950 13.891100 25.663000
268  2 -0.2876 16.946000 15.799800 14.051300
269  2 -0.5972 10.121700  5.582340 23.560600
270  2 -0.4459 14.022600  7.631260 15.790800
271  2 -0.2853 15.983200  8.807800  2.784870
272  2  0.0577 17.917800 10.754500 16.360500
273  2 -0.5845 22.206000 17.076900  4.322750
274  2 -0.3455  1.341450  1.778820 23.251100
275  2 -0.8002  2.655480 10.949100  6.411390
276  2 -0.4662 20.981300 14.901600 20.162600
277  2 -0.5053 12.602100  9.851140 13.013800
278  2 -0.5293 15.422800 18.307900 16.938200
279  2 -0.2554 14.171100 12.299800 14.937600
280  2 -0.5090  8.004290  7.360160 13.898800
281  2 -0.1825 21.924700  8.635270  1.317670
282  2 -0.6045  0.724894  5.937170 20.138400
283  2 -0.5348 22.383900 14.461900 11.732300
284  2 -0.4555 20.081200 16.768700 12.946000
285  2  0.0037 11.432000 15.334900  5.447890
286  2 -0.5280 13.583600  5.542950  7.182160
287  2 -0.1812 10.734300 14.792800  7.316260
288  2 -0.7633  9.018500 18.234500 20.278200
289  2 -0.5903 11.512600 18.090300  8.478730
290  2 -0.4009  2.079290 16.808600 18.861700
291  2 -0.5653 11.054000  7.416110 10.942000
292  2 -0.3581  0.406131 15.501100 21.444200
293  2 -0.3667 16.580600  3.244480  6.502010
294  2  0.0209 18.944200 14.929100 17.510600
295  2 -0.5616 18.286700 10.392500  5.394570
296  2 -0.3950 21.664300  6.949620 18.799900
297  2 -0.6392 -0.295960 14.652500  5.908340
298  2 -0.5183 -1.190090 16.637100 24.758400
299  2 -0.1230 21.254700  7.933520  5.769940
300  2 -0.6259 -2.084170  5.186710 15.421300
301  2 -0.6637 14.974700  4.053380 10.771000
302  2 -0.4605 12.341300 16.517600 18.497100
303  2 -0.5792 15.941600 13.088100  2.382400
304  2 -0.4840 14.380700  9.066480 20.171000
305  2 -0.7449  8.153160  3.563080 10.217500
306  2 -0.2975  5.398350 12.562200  4.456950
307  2 -0.3817  1.235050 13.390400 15.790300
308  2 -0.5391  4.733850 13.093300  0.994076
309  2 -0.4502 17.543700  7.660390 18.263700
310  2 -0.5660 14.753400  7.365200 25.994700
311  2 -0.2500 17.528300 12.086200 13.305600
312  2 -0.3439 17.654300 11.887300 23.041200
313  2 -0.4705  2.276270  7.218780 16.003700
314  2 -0.5787 21.219700  3.050680 26.902500
315  2 -0.4105  4.585520  1.610340 13.862300
316  2 -0.3700  9.970570 17.372300  0.931839
317  2 -0.0579 17.937400  9.095510 14.628000
318  2 -0.0631 19.122800  7.303560  5.471890
319  2 -0.4933 15.035000 18.056900 12.105200
320  2 -0.6144 19.714300 13.144500  1.922150

