Generated by pymatgen.io.lammps.data.LammpsData

504  atoms

  2  atom types

0.000000 17.790244  xlo xhi
0.000000 21.889351  ylo yhi
0.000000 41.650458  zlo zhi

Masses

1  208.9804
2   78.9600

Atoms

1    1  0.8355 -0.350990 14.831700 12.457800
2    1  0.8727  1.902800 18.409400 12.327400
3    1  0.8352 -0.348233  7.539280 12.458600
4    1  0.8717  1.899710 11.117200 12.323800
5    1  0.8388  4.148760 14.832200 12.470100
6    1  0.8592  6.377850 18.416700 12.336800
7    1  0.8347 -0.345222  0.244876 12.455300
8    1  0.8712  1.898280  3.819350 12.328300
9    1  0.8391  4.145930  7.532830 12.464800
10   1  0.8586  6.378070 11.112900 12.335600
11   1  0.8344  8.542060 14.836600 12.459400
12   1  0.8721 10.793900 18.408100 12.326900
13   1  0.8385  4.144570  0.238205 12.467000
14   1  0.8593  6.381470  3.818750 12.338500
15   1  0.8349  8.545050  7.541370 12.454200
16   1  0.8716 10.794800 11.119100 12.326000
17   1  0.8390 13.041600 14.828500 12.468200
18   1  0.8583 15.277000 18.411100 12.335400
19   1  0.8355  8.544780  0.243049 12.457400
20   1  0.8707 10.793900  3.819400 12.324500
21   1  0.8388 13.038300  7.533250 12.466900
22   1  0.8593 15.275400 11.117000 12.337800
23   1  0.8389 13.041900  0.235428 12.466900
24   1  0.8587 15.277400  3.822810 12.336900
25   1  0.8429  1.906250 13.501200  1.429040
26   1  0.8629  4.108950 17.281400  1.583300
27   1  0.8427  1.901420  6.199590  1.431730
28   1  0.8618  4.112390  9.988050  1.582140
29   1  0.8396  6.343460 13.534900  1.454480
30   1  0.8532  8.562070 17.266400  1.582570
31   1  0.8420  1.901280 20.796500  1.432600
32   1  0.8627  4.115170  2.682940  1.583470
33   1  0.8395  6.343160  6.230770  1.464510
34   1  0.8525  8.561670  9.969790  1.579580
35   1  0.8426 10.795800 13.498200  1.430180
36   1  0.8629 13.004400 17.282200  1.581070
37   1  0.8385  6.346510 20.833100  1.460340
38   1  0.8522  8.560340  2.669680  1.583140
39   1  0.8428 10.800100  6.199920  1.433670
40   1  0.8621 13.010400  9.985820  1.587370
41   1  0.8391 15.240900 13.531000  1.457290
42   1  0.8539 -0.333892 17.268900  1.580220
43   1  0.8426 10.801700 20.796300  1.429490
44   1  0.8615 13.010700  2.683130  1.586410
45   1  0.8399 15.241400  6.234470  1.461130
46   1  0.8518 -0.337950  9.966060  1.576350
47   1  0.8386 15.236900 20.832200  1.457640
48   1  0.8517 -0.336831  2.673750  1.580980
49   1  0.1849 17.455500 15.374900  6.701520
50   1  0.2033  1.916430 17.427500  6.089850
51   1  0.1852 17.457100  8.076090  6.701780
52   1  0.2024  1.915770 10.126400  6.094140
53   1  0.1841  4.145150 15.384100  6.691590
54   1  0.1976  6.340000 17.439800  6.075260
55   1  0.1852 17.456200  0.779713  6.703130
56   1  0.2022  1.919480  2.830920  6.104440
57   1  0.1837  4.143960  8.086140  6.690320
58   1  0.1977  6.340720 10.139600  6.076220
59   1  0.1847  8.558190 15.371700  6.698040
60   1  0.2028 10.813200 17.425400  6.091540
61   1  0.1844  4.148450  0.788929  6.697270
62   1  0.1971  6.339790  2.850430  6.080960
63   1  0.1852  8.565060  8.079610  6.697610
64   1  0.2027 10.813600 10.130600  6.094080
65   1  0.1836 13.044100 15.385800  6.691900
66   1  0.1983 15.235600 17.441500  6.071910
67   1  0.1854  8.561820  0.782111  6.705320
68   1  0.2030 10.809900  2.834020  6.094260
69   1  0.1841 13.039200  8.088990  6.693970
70   1  0.1985 15.236800 10.141500  6.071980
71   1  0.1841 13.037400  0.790890  6.700760
72   1  0.1978 15.236700  2.845860  6.079350
73   1  0.1868  1.902710 13.141200  7.114950
74   1  0.2242  4.127500 18.342100  7.939480
75   1  0.1868  1.908340  5.840840  7.112820
76   1  0.2249  4.126640 11.048200  7.941850
77   1  0.1785  6.340260 13.087400  7.069560
78   1  0.2187  8.568980 18.339000  7.902580
79   1  0.1868  1.905950 20.435900  7.112030
80   1  0.2263  4.131640  3.754790  7.951710
81   1  0.1779  6.339930  5.793090  7.065800
82   1  0.2192  8.569340 11.043800  7.902750
83   1  0.1866 10.800400 13.139100  7.116740
84   1  0.2244 13.022400 18.344900  7.942570
85   1  0.1786  6.339280 20.386300  7.067200
86   1  0.2196  8.566190  3.750120  7.907670
87   1  0.1866 10.801800  5.842450  7.112090
88   1  0.2243 13.024100 11.047100  7.939930
89   1  0.1782 15.238100 13.089400  7.067080
90   1  0.2193 -0.327197 18.341500  7.904080
91   1  0.1873 10.802400 20.434300  7.115330
92   1  0.2250 13.022100  3.753260  7.945640
93   1  0.1785 15.231000  5.789950  7.069710
94   1  0.2184 -0.327141 11.044400  7.901110
95   1  0.1782 15.233100 20.386700  7.067700
96   1  0.2195 -0.327917  3.747670  7.906770
97   1  0.8565  1.911800 13.528700 26.122900
98   1  0.8290  4.131310 17.265900 26.292100
99   1  0.8557  1.909100  6.223670 26.127700
100  1  0.8286  4.133030  9.965090 26.297800
101  1  0.8404  6.357990 13.567400 26.181400
102  1  0.8258  8.570720 17.258400 26.318400
103  1  0.8568  1.908020 20.819100 26.124700
104  1  0.8292  4.134020  2.671060 26.295200
105  1  0.8406  6.356780  6.262430 26.174700
106  1  0.8261  8.568470  9.960420 26.323700
107  1  0.8573 10.803000 13.528300 26.125900
108  1  0.8290 13.028400 17.263300 26.293200
109  1  0.8400  6.359140 20.870100 26.177300
110  1  0.8241  8.568890  2.663630 26.322400
111  1  0.8552 10.801300  6.224660 26.128700
112  1  0.8279 13.026500  9.968180 26.298700
113  1  0.8402 15.251900 13.566800 26.180200
114  1  0.8259 -0.325332 17.258800 26.316200
115  1  0.8565 10.802500 20.821100 26.130100
116  1  0.8281 13.026800  2.671000 26.290800
117  1  0.8401 15.254900  6.264370 26.176400
118  1  0.8263 -0.320738  9.958420 26.328500
119  1  0.8397 15.253100 20.867400 26.180000
120  1  0.8258 -0.323531  2.662240 26.318000
121  1  0.8440  1.895760 15.956700 15.221700
122  1  0.8591  4.124010 19.700600 15.537100
123  1  0.8441  1.897910  8.660680 15.217200
124  1  0.8595  4.126270 12.404800 15.541200
125  1  0.8531  6.348820 15.952800 15.293900
126  1  0.8503  8.576310 19.675800 15.543200
127  1  0.8410  1.893570  1.367570 15.221300
128  1  0.8600  4.122010  5.109240 15.539400
129  1  0.8521  6.352150  8.653020 15.291900
130  1  0.8499  8.572080 12.369900 15.545100
131  1  0.8434 10.790300 15.955500 15.220300
132  1  0.8582 13.019800 19.701300 15.538600
133  1  0.8522  6.353700  1.362950 15.292500
134  1  0.8499  8.577560  5.080290 15.546400
135  1  0.8438 10.789300  8.662610 15.217500
136  1  0.8601 13.016900 12.400700 15.537400
137  1  0.8528 15.246000 15.947300 15.291800
138  1  0.8501 -0.319091 19.673200 15.545200
139  1  0.8424 10.788400  1.363880 15.220800
140  1  0.8594 13.020000  5.110040 15.542500
141  1  0.8526 15.243800  8.658420 15.294600
142  1  0.8512 -0.319299 12.369400 15.542700
143  1  0.8529 15.247300  1.360910 15.292700
144  1  0.8495 -0.316038  5.077410 15.549700
145  1  0.2015  1.886700 12.446800 19.914400
146  1  0.1845  4.106830 17.670600 20.517500
147  1  0.2028  1.885230  5.147420 19.911300
148  1  0.1845  4.105930 10.372500 20.511900
149  1  0.2039  6.365160 12.474200 19.880500
150  1  0.1837  8.566540 17.662700 20.518700
151  1  0.2017  1.885620 19.742200 19.913500
152  1  0.1850  4.108740  3.077260 20.513000
153  1  0.2035  6.363540  5.175500 19.885500
154  1  0.1838  8.568100 10.364500 20.517800
155  1  0.2017 10.780500 12.446200 19.914300
156  1  0.1847 13.003300 17.674800 20.514700
157  1  0.2036  6.365140 19.773600 19.884300
158  1  0.1836  8.565240  3.070500 20.514500
159  1  0.2029 10.780500  5.148520 19.906900
160  1  0.1841 13.002400 10.373400 20.518500
161  1  0.2041 15.256600 12.474200 19.881600
162  1  0.1839 17.463600 17.660500 20.517200
163  1  0.2013 10.780900 19.742900 19.916100
164  1  0.1847 13.002300  3.078060 20.516500
165  1  0.2038 15.259600  5.174620 19.881600
166  1  0.1836 17.460500 10.366500 20.516300
167  1  0.2032 15.259200 19.772100 19.887600
168  1  0.1837 17.463000  3.067880 20.515600
169  1  0.1807  1.886100 15.444500 20.749100
170  1  0.2161  4.137030 20.579000 21.680200
171  1  0.1806  1.880610  8.148060 20.754400
172  1  0.2147  4.137700 13.278700 21.675000
173  1  0.1796  6.343200 15.468900 20.816500
174  1  0.2218  8.548340 20.579100 21.728400
175  1  0.1810  1.882550  0.853470 20.746400
176  1  0.2152  4.135550  5.987710 21.675500
177  1  0.1794  6.343600  8.169530 20.814000
178  1  0.2203  8.547900 13.278600 21.720400
179  1  0.1809 10.777700 15.445200 20.745400
180  1  0.2163 13.030600 20.584000 21.679000
181  1  0.1795  6.344720  0.872383 20.810800
182  1  0.2208  8.549980  5.981540 21.722500
183  1  0.1806 10.778100  8.149910 20.747900
184  1  0.2147 13.031500 13.278100 21.676000
185  1  0.1797 15.237100 15.470100 20.815600
186  1  0.2215 -0.349468 20.575500 21.725600
187  1  0.1810 10.775500  0.858311 20.744600
188  1  0.2149 13.029600  5.985670 21.674500
189  1  0.1791 15.239600  8.166860 20.817700
190  1  0.2202 -0.350924 13.277100 21.720900
191  1  0.1796 15.239900  0.875104 20.815200
192  1  0.2208 -0.346416  5.981870 21.723600
193  1  0.8581  1.900000 16.018800 40.036500
194  1  0.8381  4.122400 19.753700 40.332800
195  1  0.8587  1.898300  8.719900 40.036300
196  1  0.8380  4.122580 12.452700 40.328600
197  1  0.8413  6.347350 16.036200 40.092500
198  1  0.8345  8.550780 19.761500 40.308700
199  1  0.8586  1.901670  1.424080 40.034400
200  1  0.8399  4.125540  5.154580 40.328200
201  1  0.8416  6.354040  8.734500 40.091500
202  1  0.8349  8.550550 12.462600 40.308000
203  1  0.8578 10.793400 16.021500 40.040200
204  1  0.8377 13.022000 19.756800 40.329200
205  1  0.8417  6.349730  1.439760 40.096200
206  1  0.8372  8.554140  5.163710 40.304700
207  1  0.8577 10.796400  8.721960 40.038800
208  1  0.8383 13.018200 12.448500 40.335500
209  1  0.8409 15.248300 16.032900 40.093500
210  1  0.8360 -0.344288 19.763400 40.307800
211  1  0.8591 10.795500  1.421270 40.038300
212  1  0.8398 13.019000  5.155070 40.331000
213  1  0.8420 15.245500  8.737350 40.092900
214  1  0.8354 -0.344048 12.459300 40.308600
215  1  0.8420 15.243500  1.438690 40.093700
216  1  0.8380 -0.345361  5.171270 40.301800
217  1  0.8351 -0.334298 14.724900 29.402600
218  1  0.8640  1.886620 18.399300 29.183700
219  1  0.8342 -0.337604  7.423900 29.415700
220  1  0.8632  1.892770 11.106200 29.186600
221  1  0.8505  4.107160 14.728400 29.412800
222  1  0.8611  6.331230 18.338500 29.218400
223  1  0.8347 -0.338554  0.131807 29.407300
224  1  0.8637  1.884890  3.805290 29.179200
225  1  0.8500  4.106710  7.420720 29.416400
226  1  0.8604  6.327900 11.040600 29.219000
227  1  0.8356  8.558850 14.726100 29.404800
228  1  0.8645 10.783500 18.397400 29.185800
229  1  0.8518  4.107200  0.130197 29.410500
230  1  0.8613  6.331370  3.747160 29.216400
231  1  0.8350  8.556900  7.428010 29.410500
232  1  0.8636 10.785600 11.102400 29.185100
233  1  0.8507 13.001500 14.724800 29.412600
234  1  0.8605 15.224600 18.335700 29.223000
235  1  0.8358  8.554920  0.133251 29.404900
236  1  0.8634 10.785100  3.808090 29.182800
237  1  0.8502 13.005700  7.424840 29.411700
238  1  0.8595 15.222900 11.038200 29.223000
239  1  0.8506 13.003400  0.130618 29.417100
240  1  0.8616 15.225400  3.743250 29.216900
241  1  0.1961  1.886880 14.853100 33.909600
242  1  0.1890  4.146110 20.145500 34.476200
243  1  0.1956  1.882100  7.554970 33.909500
244  1  0.1889  4.149720 12.848000 34.478500
245  1  0.1953  6.379770 14.923100 33.868300
246  1  0.1835  8.553710 20.165500 34.503200
247  1  0.1948  1.881170  0.256422 33.918800
248  1  0.1889  4.145560  5.553420 34.473100
249  1  0.1942  6.383840  7.624520 33.875500
250  1  0.1841  8.554270 12.869500 34.501100
251  1  0.1967 10.777800 14.855200 33.903600
252  1  0.1889 13.040600 20.144900 34.474600
253  1  0.1948  6.384200  0.328777 33.869600
254  1  0.1833  8.557870  5.572770 34.499700
255  1  0.1961 10.776200  7.558550 33.904800
256  1  0.1893 13.042300 12.847100 34.476700
257  1  0.1953 15.275400 14.923000 33.871000
258  1  0.1833 17.449500 20.162000 34.505800
259  1  0.1953 10.775000  0.258914 33.914900
260  1  0.1886 13.038200  5.557040 34.480000
261  1  0.1944 15.278100  7.622060 33.874900
262  1  0.1842 17.449000 12.868000 34.502700
263  1  0.1949 15.281900  0.325968 33.867800
264  1  0.1835 17.452800  5.571210 34.501800
265  1  0.2074 -0.326041 15.867100 35.658300
266  1  0.1874  1.882920 17.951800 34.774500
267  1  0.2075 -0.323528  8.569150 35.660200
268  1  0.1876  1.883110 10.657000 34.772000
269  1  0.2057  4.127630 15.893500 35.593900
270  1  0.1833  6.367630 17.924700 34.808800
271  1  0.2079 -0.327861  1.273350 35.663600
272  1  0.1873  1.884090  3.357470 34.775400
273  1  0.2057  4.125280  8.594270 35.593200
274  1  0.1834  6.367340 10.626200 34.806900
275  1  0.2074  8.570210 15.863100 35.656500
276  1  0.1873 10.777500 17.954300 34.770700
277  1  0.2059  4.131410  1.297810 35.594800
278  1  0.1829  6.368160  3.334660 34.808400
279  1  0.2073  8.574150  8.570720 35.659000
280  1  0.1875 10.778100 10.659300 34.775300
281  1  0.2059 13.019700 15.891400 35.592000
282  1  0.1832 15.262600 17.922400 34.807000
283  1  0.2081  8.566390  1.272610 35.661500
284  1  0.1877 10.779500  3.361270 34.771200
285  1  0.2052 13.017700  8.594440 35.592400
286  1  0.1836 15.263800 10.627400 34.808100
287  1  0.2058 13.026100  1.297520 35.592300
288  1  0.1831 15.263200  3.333270 34.807400
289  2 -0.8075 -0.308096 14.961200 41.657300
290  2 -0.8131  1.920240 18.373400  0.119427
291  2 -0.8093 -0.313208  7.659570 41.653400
292  2 -0.8130  1.921930 11.079800  0.116763
293  2 -0.8015  4.095180 14.986500 41.631300
294  2 -0.8199  6.318430 18.396600  0.070902
295  2 -0.8088 -0.310716 22.259700 41.654400
296  2 -0.8116  1.920520  3.787920  0.114982
297  2 -0.7989  4.098150  7.686660 41.631400
298  2 -0.8206  6.318040 11.102300  0.067490
299  2 -0.8080  8.581550 14.965600 41.655800
300  2 -0.8137 10.812700 18.377100  0.118410
301  2 -0.8026  4.099740 22.279600 41.634100
302  2 -0.8204  6.320840  3.805090  0.070309
303  2 -0.8071  8.586460  7.660930 41.656400
304  2 -0.8138 10.817300 11.078800  0.119711
305  2 -0.8002 12.992000 14.987900 41.633100
306  2 -0.8199 15.216800 18.397000  0.068897
307  2 -0.8097  8.586090 22.260600 41.655300
308  2 -0.8121 10.816600  3.785450  0.112684
309  2 -0.8001 12.993400  7.685930 41.632500
310  2 -0.8223 15.214200 11.100100  0.068781
311  2 -0.8038 12.994200 22.280800 41.633400
312  2 -0.8200 15.213700  3.808780  0.063950
313  2 -0.6170  1.921990 15.857900  3.017530
314  2 -0.6477  4.128690 19.744600  3.073310
315  2 -0.6175  1.925530  8.562610  3.016170
316  2 -0.6478  4.135880 12.456900  3.069720
317  2 -0.6292  6.323430 15.853900  2.951320
318  2 -0.6489  8.577280 19.702700  3.099330
319  2 -0.6165  1.926830  1.263110  3.020980
320  2 -0.6488  4.129290  5.144210  3.070280
321  2 -0.6299  6.327350  8.556660  2.953810
322  2 -0.6495  8.569920 12.404800  3.090070
323  2 -0.6172 10.819200 15.856500  3.011380
324  2 -0.6478 13.024600 19.742700  3.070710
325  2 -0.6307  6.323600  1.255960  2.955370
326  2 -0.6503  8.574810  5.105390  3.096500
327  2 -0.6171 10.822400  8.565140  3.019260
328  2 -0.6481 13.027100 12.454200  3.070920
329  2 -0.6285 15.223000 15.855200  2.951460
330  2 -0.6496 17.464600 19.698300  3.096010
331  2 -0.6173 10.821800  1.261200  3.023110
332  2 -0.6483 13.028800  5.151960  3.070380
333  2 -0.6305 15.217200  8.555410  2.958390
334  2 -0.6489 17.462500 12.402800  3.093490
335  2 -0.6308 15.218600  1.256560  2.957200
336  2 -0.6496 17.464400  5.105780  3.101310
337  2 -0.6473  1.904540 15.963500 10.859800
338  2 -0.6351  4.102840 19.593200 10.877300
339  2 -0.6482  1.907890  8.665080 10.862400
340  2 -0.6349  4.103900 12.296500 10.873000
341  2 -0.6567  6.357620 15.873100 10.932400
342  2 -0.6421  8.611260 19.612800 10.888700
343  2 -0.6494  1.907560  1.368900 10.864600
344  2 -0.6350  4.106140  4.994240 10.872600
345  2 -0.6570  6.359790  8.577680 10.930700
346  2 -0.6427  8.611270 12.311800 10.886500
347  2 -0.6484 10.802200 15.963200 10.864300
348  2 -0.6347 12.996300 19.591900 10.875900
349  2 -0.6566  6.360680  1.278600 10.933200
350  2 -0.6431  8.611350  5.019720 10.882100
351  2 -0.6480 10.800700  8.664740 10.862000
352  2 -0.6353 13.000700 12.293200 10.876300
353  2 -0.6565 15.257800 15.872400 10.931300
354  2 -0.6420 -0.276827 19.604500 10.886400
355  2 -0.6484 10.796000  1.364910 10.863500
356  2 -0.6356 12.998300  4.999020 10.872000
357  2 -0.6560 15.253100  8.578680 10.935600
358  2 -0.6436 -0.281018 12.312200 10.891500
359  2 -0.6566 15.255500  1.277230 10.930200
360  2 -0.6433 -0.282525  5.021830 10.885400
361  2 -0.7977  1.946870 13.471400 13.923700
362  2 -0.7889  4.126510 17.342000 13.848900
363  2 -0.7990  1.947580  6.180610 13.921300
364  2 -0.7879  4.121080 10.046300 13.845200
365  2 -0.8046  6.352200 13.528300 13.909400
366  2 -0.8009  8.568110 17.318600 13.870400
367  2 -0.7978  1.944010 20.760500 13.920600
368  2 -0.7879  4.121940  2.757810 13.846000
369  2 -0.8036  6.354670  6.228080 13.901500
370  2 -0.8024  8.570540 10.022900 13.867200
371  2 -0.7985 10.842200 13.471500 13.922400
372  2 -0.7877 13.018400 17.338900 13.847000
373  2 -0.8040  6.355520 20.826600 13.899800
374  2 -0.8022  8.572220  2.729930 13.873800
375  2 -0.7982 10.842900  6.174640 13.924500
376  2 -0.7881 13.019000 10.051300 13.846000
377  2 -0.8049 15.249700 13.531200 13.906900
378  2 -0.8006 -0.321520 17.316900 13.868900
379  2 -0.7978 10.842500 20.762200 13.918000
380  2 -0.7864 13.019900  2.752570 13.847300
381  2 -0.8030 15.249600  6.230190 13.905000
382  2 -0.8018 -0.324871 10.025300 13.870600
383  2 -0.8033 15.251400 20.827600 13.899300
384  2 -0.8026 -0.323964  2.731290 13.869800
385  2 -0.6581 17.463900 14.871300 16.885700
386  2 -0.6466  1.910170 18.369000 16.829600
387  2 -0.6580 17.467500  7.585420 16.891000
388  2 -0.6462  1.912150 11.076800 16.827300
389  2 -0.6592  4.143960 14.869800 16.863600
390  2 -0.6506  6.349560 18.325800 16.850700
391  2 -0.6600 17.463200  0.283109 16.883200
392  2 -0.6488  1.911590  3.788840 16.837600
393  2 -0.6582  4.145630  7.571950 16.865900
394  2 -0.6515  6.348490 11.020300 16.853900
395  2 -0.6582  8.570010 14.876800 16.889500
396  2 -0.6464 10.806000 18.370600 16.827700
397  2 -0.6589  4.147130  0.274042 16.865400
398  2 -0.6515  6.348880  3.731460 16.850100
399  2 -0.6586  8.572140  7.586650 16.887000
400  2 -0.6465 10.803400 11.073400 16.828100
401  2 -0.6581 13.041500 14.863300 16.867500
402  2 -0.6509 15.245400 18.322400 16.853900
403  2 -0.6601  8.570710  0.283458 16.883900
404  2 -0.6473 10.809100  3.782880 16.835700
405  2 -0.6588 13.039200  7.579260 16.862300
406  2 -0.6512 15.242700 11.023800 16.849500
407  2 -0.6585 13.039700  0.277207 16.866200
408  2 -0.6516 15.243200  3.728760 16.853700
409  2 -0.6434 -0.262139 14.728800 24.719800
410  2 -0.6426  1.878850 18.380300 24.739100
411  2 -0.6421 -0.259378  7.431970 24.720100
412  2 -0.6411  1.878020 11.082600 24.747600
413  2 -0.6393  4.095650 14.681300 24.700900
414  2 -0.6402  6.349870 18.382500 24.676600
415  2 -0.6429 -0.261051  0.141369 24.715900
416  2 -0.6420  1.881710  3.783440 24.740000
417  2 -0.6390  4.094850  7.382100 24.707100
418  2 -0.6401  6.354710 11.078000 24.684700
419  2 -0.6429  8.629460 14.731700 24.718700
420  2 -0.6418 10.773900 18.383300 24.742000
421  2 -0.6386  4.089410  0.089114 24.699300
422  2 -0.6409  6.348010  3.780140 24.675300
423  2 -0.6423  8.628010  7.433690 24.718500
424  2 -0.6417 10.773000 11.090200 24.749300
425  2 -0.6393 12.984700 14.681300 24.703200
426  2 -0.6400 15.246600 18.381600 24.670900
427  2 -0.6436  8.633510  0.137177 24.715500
428  2 -0.6424 10.776700  3.788730 24.733600
429  2 -0.6381 12.986200  7.385490 24.703100
430  2 -0.6395 15.247500 11.077200 24.685200
431  2 -0.6388 12.986500  0.083301 24.701800
432  2 -0.6407 15.248200  3.782650 24.673000
433  2 -0.7971  1.936780 15.950400 27.959600
434  2 -0.7997  4.108000 19.678100 27.674000
435  2 -0.7958  1.931650  8.649010 27.962300
436  2 -0.8005  4.108390 12.382700 27.674100
437  2 -0.8158  6.341480 15.943200 27.919300
438  2 -0.8086  8.576370 19.652900 27.716900
439  2 -0.7961  1.931070  1.348150 27.964300
440  2 -0.8016  4.111990  5.076680 27.675400
441  2 -0.8145  6.339860  8.641900 27.923600
442  2 -0.8081  8.580010 12.360100 27.718100
443  2 -0.7967 10.828400 15.946300 27.960500
444  2 -0.7994 13.000600 19.672800 27.678300
445  2 -0.8172  6.340680  1.349340 27.918300
446  2 -0.8102  8.574690  5.058780 27.716200
447  2 -0.7963 10.825400  8.648360 27.963600
448  2 -0.8003 13.002500 12.383900 27.675800
449  2 -0.8159 15.234000 15.943400 27.917100
450  2 -0.8090 -0.316498 19.650400 27.710100
451  2 -0.7964 10.830200  1.349390 27.968100
452  2 -0.8011 13.004400  5.079350 27.676400
453  2 -0.8152 15.238000  8.639150 27.926000
454  2 -0.8077 -0.314961 12.360200 27.716100
455  2 -0.8168 15.234300  1.351370 27.917800
456  2 -0.8098 -0.319392  5.057500 27.711700
457  2 -0.6408  1.909030 13.347400 30.807100
458  2 -0.6275  4.117970 17.237700 30.792700
459  2 -0.6415  1.909150  6.040640 30.806300
460  2 -0.6279  4.119130  9.943460 30.787200
461  2 -0.6420  6.307640 13.284600 30.796000
462  2 -0.6287  8.568060 17.237400 30.887200
463  2 -0.6405  1.904750 20.644300 30.798100
464  2 -0.6258  4.115630  2.639680 30.784800
465  2 -0.6426  6.302800  5.983660 30.801200
466  2 -0.6282  8.562270  9.946210 30.887900
467  2 -0.6407 10.804300 13.347000 30.808400
468  2 -0.6282 13.011000 17.235900 30.791100
469  2 -0.6429  6.307250 20.576500 30.790200
470  2 -0.6278  8.561950  2.648590 30.886600
471  2 -0.6408 10.802400  6.048190 30.803200
472  2 -0.6286 13.012800  9.941450 30.788500
473  2 -0.6418 15.204200 13.283400 30.798300
474  2 -0.6286 17.461800 17.236000 30.888900
475  2 -0.6402 10.798400 20.644400 30.800500
476  2 -0.6265 13.015400  2.646800 30.792200
477  2 -0.6421 15.202600  5.980140 30.800400
478  2 -0.6284 17.459500  9.943270 30.895300
479  2 -0.6442 15.201000 20.575500 30.796000
480  2 -0.6274 17.459100  2.650680 30.886200
481  2 -0.6433  1.895870 13.564100 38.690000
482  2 -0.6211  4.094330 17.402400 38.643600
483  2 -0.6428  1.896710  6.267570 38.684500
484  2 -0.6210  4.090340 10.095000 38.647000
485  2 -0.6418  6.346200 13.509700 38.665700
486  2 -0.6300  8.607820 17.439500 38.714200
487  2 -0.6426  1.895160 20.861300 38.687000
488  2 -0.6223  4.089280  2.802240 38.652900
489  2 -0.6426  6.342490  6.211650 38.682900
490  2 -0.6309  8.613220 10.140300 38.713400
491  2 -0.6409 10.791700 13.564300 38.682500
492  2 -0.6202 12.989700 17.397900 38.645500
493  2 -0.6414  6.338990 20.816400 38.665800
494  2 -0.6302  8.615060  2.841000 38.717700
495  2 -0.6420 10.789000  6.265890 38.675400
496  2 -0.6215 12.987900 10.102200 38.651900
497  2 -0.6410 15.234500 13.508400 38.668400
498  2 -0.6304 -0.282767 17.441100 38.712900
499  2 -0.6426 10.795300 20.863200 38.680300
500  2 -0.6210 12.986200  2.801130 38.653400
501  2 -0.6431 15.240300  6.215700 38.683700
502  2 -0.6312 -0.280004 10.139200 38.714800
503  2 -0.6427 15.238400 20.810900 38.674300
504  2 -0.6304 -0.282874  2.842830 38.716900

