Generated by pymatgen.io.lammps.data.LammpsData

216  atoms

  2  atom types

0.000000 18.096178  xlo xhi
0.000000 18.140645  ylo yhi
0.000000 18.233787  zlo zhi

Masses

1  208.9804
2   78.9600

Atoms

1    1  0.7888  0.334882 17.752800  0.397899
2    1  0.7970  0.032667 17.920000  6.759340
3    1  0.7128  0.385007 18.222100 12.144800
4    1  0.7653 -0.114216  6.168780  0.305358
5    1  0.7721 -0.110928  5.594850  6.999110
6    1  0.8580  0.473197  5.651570 12.427900
7    1  0.7848 18.349700 11.805900  0.552096
8    1  0.7694  0.199173 11.725300  6.512760
9    1  0.7968  0.048198 11.777100 12.472300
10   1  0.7744  6.162880 -0.151940 -0.192301
11   1  0.7947  6.086310 -0.217967  6.530530
12   1  0.8315  6.281650 18.165200 12.148300
13   1  0.7678  6.120170  5.762790  0.460221
14   1  0.7865  6.203580  6.001700  6.141100
15   1  0.7796  6.441050  5.834980 12.798400
16   1  0.7685  6.071740 12.041400  0.286743
17   1  0.7755  6.467000 11.952900  6.486230
18   1  0.7492  6.356680 12.130400 12.547700
19   1  0.7857 12.323900 17.551400  0.791708
20   1  0.8281 12.049600 18.151100  6.745690
21   1  0.7650 12.202200 -0.329671 12.808100
22   1  0.8226 12.206700  5.588400  0.400439
23   1  0.7117 11.896500  5.874940  6.538000
24   1  0.8123 12.362000  5.798270 13.175000
25   1  0.7821 11.929400 12.186000  0.401646
26   1  0.7867 12.248600 12.097900  6.528010
27   1  0.7959 12.284800 12.117400 12.525600
28   1  0.9005  0.159492  2.857640  3.159960
29   1  0.7236  0.061482  2.680350  9.334250
30   1  0.7813 18.369600  2.564020 15.291200
31   1  0.8055 18.441400  8.767450  3.611350
32   1  0.7328  0.473606  8.927270  9.508080
33   1  0.8261 18.261200  8.884490 15.772200
34   1  0.7828 18.196800 14.765400  3.633440
35   1  0.8227  0.429900 14.949600  9.605670
36   1  0.7433  0.433902 14.731400 15.638200
37   1  0.8185  6.273460  2.732210  3.352160
38   1  0.8217  6.220760  2.984980 10.005700
39   1  0.7969  5.848170  2.898200 15.525400
40   1  0.7604  6.229240  8.800390  3.466360
41   1  0.7786  6.599190  9.049970  9.470750
42   1  0.7424  6.523190  8.412170 15.798200
43   1  0.8225  6.121040 14.807400  3.178850
44   1  0.7646  6.594320 14.814100  9.693770
45   1  0.7746  6.494030 14.951800 15.454800
46   1  0.7684 12.285900  2.661850  3.619330
47   1  0.8959 12.147500  2.876410 10.143100
48   1  0.8302 12.311800  2.657020 15.790200
49   1  0.7212 12.204300  8.893940  3.467300
50   1  0.7408 12.337200  8.485840  9.739470
51   1  0.7616 12.604400  8.477710 15.712800
52   1  0.8281 12.069600 14.995100  3.642520
53   1  0.8195 12.600900 15.030800  9.754570
54   1  0.7772 12.333300 15.186300 15.922000
55   1  0.8173  3.263950 -0.201196  3.211860
56   1  0.8311  3.418990 17.920800  9.181560
57   1  0.7522  3.272200 18.008500 15.693900
58   1  0.8042  3.434600  5.455120  3.451120
59   1  0.7617  3.453140  5.950140  9.946000
60   1  0.7651  3.525960  5.595510 15.758600
61   1  0.8621  3.097750 11.959400  3.440890
62   1  0.7971  3.595130 11.909500  9.732430
63   1  0.7639  3.242280 11.883200 15.585800
64   1  0.8284  9.105890 17.967900  3.708680
65   1  0.8294  8.846340 18.091000  9.829690
66   1  0.7920  9.222130 -0.125590 15.717000
67   1  0.7430  9.158220  5.647450  3.664890
68   1  0.7681  9.480090  5.711100  9.105770
69   1  0.8094  9.545410  5.898620 15.694700
70   1  0.7889  8.907980 12.136100  3.289320
71   1  0.7839  9.359390 11.998400  9.446680
72   1  0.7951  9.382610 12.327600 16.010900
73   1  0.7592 15.290700 18.195400  3.462160
74   1  0.7320 15.652300 17.670400  9.444570
75   1  0.7101 15.434700 17.750900 15.571200
76   1  0.8032 15.191500  5.922490  3.496420
77   1  0.7571 15.037900  5.672350  9.769070
78   1  0.7957 15.435600  5.806810 16.375700
79   1  0.8214 15.247800 12.124300  3.475260
80   1  0.7773 15.179100 11.975700  9.595150
81   1  0.8057 14.932000 11.515400 15.073200
82   1  0.8252  3.211640  3.237470  0.536047
83   1  0.7516  3.760760  2.681810  6.340800
84   1  0.7708  3.079130  2.419180 12.663700
85   1  0.7811  3.217540  8.965900  0.645963
86   1  0.8611  3.235400  8.726170  6.898990
87   1  0.7542  3.364360  8.572490 12.242900
88   1  0.7855  3.440550 15.009000  0.490055
89   1  0.7812  3.329000 15.022500  6.647010
90   1  0.8239  3.415850 14.730900 12.651100
91   1  0.7943  9.252980  3.325010  0.459874
92   1  0.9006  9.148050  2.611720  6.645190
93   1  0.7968  9.383930  3.485890 12.564200
94   1  0.7696  9.420520  8.827760  0.587998
95   1  0.7437  9.507890  9.005490  6.383480
96   1  0.8516  9.363360  8.975510 12.237300
97   1  0.8228  9.144420 15.032600  0.376967
98   1  0.7609  9.245410 15.053000  6.340840
99   1  0.7806  9.116350 15.139400 12.441700
100  1  0.7217 15.484500  2.220660  0.357723
101  1  0.7602 15.149500  3.115420  6.505190
102  1  0.7170 15.750400  3.050910 12.770300
103  1  0.8164 15.084300  9.186000  0.706549
104  1  0.8158 15.105100  8.913910  6.927250
105  1  0.8317 15.111100  8.957280 12.423400
106  1  0.8048 15.801900 14.660700  0.369919
107  1  0.7572 15.370900 15.165600  6.633000
108  1  0.7636 15.318500 14.701900 12.424900
109  2 -0.7871  3.081090 18.341400  0.169589
110  2 -0.8058  3.372930 17.883800  6.101100
111  2 -0.7450  3.700430 17.659100 12.121200
112  2 -0.8300  3.155430  5.951050  0.546748
113  2 -0.7364  3.319100  6.051500  6.377190
114  2 -0.7986  3.403520  5.463170 12.548200
115  2 -0.8229  3.083130 11.835300  0.805616
116  2 -0.7050  3.279930 11.499100  6.584420
117  2 -0.7604  3.200090 11.676200 12.591300
118  2 -0.6921  9.170300 17.876700  0.682367
119  2 -0.8318  9.043020 18.323500  6.671180
120  2 -0.7578  9.256340  0.089254 12.555300
121  2 -0.8413  9.488580  6.093660  0.201212
122  2 -0.8505  9.069560  5.364550  6.414740
123  2 -0.7860  9.489490  6.238830 12.745400
124  2 -0.8639  9.058330 12.192500  0.400120
125  2 -0.8071  9.348860 12.131200  6.330280
126  2 -0.7428  9.266130 12.130100 12.408600
127  2 -0.8196 15.516300 17.641700  0.607163
128  2 -0.8028 15.219600 17.970100  6.689550
129  2 -0.7828 15.181700 17.496700 12.447700
130  2 -0.8401 15.230300  6.257000  0.662429
131  2 -0.7902 14.989000  6.029460  6.587260
132  2 -0.6948 15.472100  6.235280 12.911100
133  2 -0.7776 15.551100 11.872700  0.412363
134  2 -0.7775 15.286900 11.854200  6.497920
135  2 -0.9127 15.127400 11.717300 12.380500
136  2 -0.8266  3.052280  2.904570  3.378720
137  2 -0.7427  3.383900  2.807700  9.518570
138  2 -0.8337  3.085820  2.865350 15.816900
139  2 -0.7255  3.369650  9.072560  3.636570
140  2 -0.8755  3.434580  8.891240  9.415010
141  2 -0.7035  3.133510  8.674060 15.731900
142  2 -0.7675  3.049880 14.901700  3.295860
143  2 -0.7345  3.635170 14.912100  9.570890
144  2 -0.8207  3.341080 14.534300 15.772900
145  2 -0.7683  8.829010  2.732500  3.561030
146  2 -0.7571  9.144940  2.877990  9.702220
147  2 -0.7241  9.429550  2.728510 15.707400
148  2 -0.8292  9.278010  9.277460  3.630940
149  2 -0.8383  9.376860  8.754760  9.338880
150  2 -0.6704  9.622680  8.849170 15.399500
151  2 -0.8144  9.100720 15.053200  3.375500
152  2 -0.7717  9.598180 14.894700  9.545070
153  2 -0.8634  9.291220 15.030900 15.801600
154  2 -0.7867 15.633400  2.825380  3.496030
155  2 -0.7893 15.290300  2.617620  9.704510
156  2 -0.8074 15.326100  2.973690 15.659200
157  2 -0.7298 15.332200  8.923630  3.450780
158  2 -0.8353 15.242000  8.797760  9.755290
159  2 -0.7962 15.476100  8.888700 15.634100
160  2 -0.7617 15.265100 14.827700  3.467360
161  2 -0.8857 15.309600 14.830600  9.675290
162  2 -0.7509 15.368800 14.834300 15.737900
163  2 -0.7009 18.492000 18.224600  3.555100
164  2 -0.8961  0.626567 17.688300  9.451090
165  2 -0.8200  0.421625 17.956100 15.573600
166  2 -0.6791 18.308400  5.618300  3.568260
167  2 -0.8185  0.198162  5.611700  9.737290
168  2 -0.6726 18.720300  5.863920 15.290200
169  2 -0.8098 18.282500 11.799000  3.660900
170  2 -0.7756  0.577460 12.041400  9.441580
171  2 -0.7402 18.071700 11.812000 15.331400
172  2 -0.7426  6.332270 18.001400  3.248240
173  2 -0.8663  6.137570 17.937200  9.383440
174  2 -0.8033  6.279030 18.042100 15.354700
175  2 -0.8876  6.209870  5.466230  3.202890
176  2 -0.7061  6.513300  5.819080  9.737960
177  2 -0.8607  6.767950  5.601630 15.721400
178  2 -0.7715  5.987190 12.027000  3.374490
179  2 -0.8818  6.419780 12.213300  9.369520
180  2 -0.7496  6.366340 11.915200 15.429000
181  2 -0.8156 12.270300 17.774100  3.908310
182  2 -0.6967 11.591500 18.439800  9.561790
183  2 -0.7981 12.336600 -0.172130 16.231300
184  2 -0.7938 12.118500  5.264210  3.313790
185  2 -0.8341 12.487600  5.342610 10.246000
186  2 -0.8661 12.721600  5.544990 15.840100
187  2 -0.7484 12.384800 12.200400  3.360590
188  2 -0.7703 12.308700 12.175500  9.564540
189  2 -0.7800 12.382300 12.103300 15.669500
190  2 -0.7375  0.372873  2.917870  0.265917
191  2 -0.7167 17.928100  2.698180  6.216850
192  2 -0.9115  0.419571  2.793470 12.391300
193  2 -0.8118  0.269394  8.852490  0.517339
194  2 -0.7536  0.040756  8.520240  6.529890
195  2 -0.7051  0.465514  8.722610 12.511700
196  2 -0.8086  0.629893 14.935500  0.653560
197  2 -0.8006 18.377600 15.085600  6.584490
198  2 -0.7437  0.713502 14.664500 12.344400
199  2 -0.7777  6.399250  2.868900  0.501918
200  2 -0.7505  6.243390  3.148520  6.964270
201  2 -0.8279  6.189540  2.864840 12.872400
202  2 -0.7893  6.392190  8.766400  0.454899
203  2 -0.7639  6.290940  8.907100  6.538090
204  2 -0.7669  6.481440  8.678830 12.429100
205  2 -0.8554  6.281660 14.992800  0.361185
206  2 -0.7817  6.175920 15.244400  6.091620
207  2 -0.8461  6.423110 15.149100 12.628100
208  2 -0.7607 12.389700  2.697650 18.653300
209  2 -0.7780 12.004800  2.964720  6.478850
210  2 -0.7920 12.005700  2.922530 12.623500
211  2 -0.7983 12.290400  8.780700  0.277973
212  2 -0.8348 12.330600  8.803110  6.492270
213  2 -0.7829 12.167100  8.827080 12.433900
214  2 -0.7977 12.296500 14.881700  0.675701
215  2 -0.7527 12.265900 15.159100  6.596190
216  2 -0.7991 12.149300 15.052900 12.568400

