Generated by pymatgen.io.lammps.data.LammpsData

360  atoms

  2  atom types

0.000000 16.871067  xlo xhi
0.000000 22.058404  ylo yhi
0.000000 29.928687  zlo zhi

Masses

1  208.9804
2   78.9600

Atoms

1    1  0.8360  1.513500 14.277300 21.963400
2    1  0.8227  3.852200 17.706000 22.289900
3    1  0.7487  2.014120  6.394940 21.772300
4    1  0.8470  3.519440 10.657000 22.052900
5    1  0.7189  6.155540 13.885900 22.491400
6    1  0.7151  7.965830 17.541600 22.012600
7    1  0.7408  1.885800 21.100200 22.308500
8    1  0.7593  4.173630  3.222510 21.838600
9    1  0.6771  5.637900  7.046260 22.019900
10   1  0.6783  7.797160 10.587400 21.891300
11   1  0.7749 10.554700 13.680300 22.507500
12   1  0.8177 12.557400 17.849200 22.336600
13   1  0.7741  5.787780 20.940400 22.023500
14   1  0.8636  8.111720  3.252570 22.146000
15   1  0.8057 10.423800  6.621540 22.534200
16   1  0.7871 12.298800 10.047000 22.335500
17   1  0.7994 14.616600 13.688000 22.148100
18   1  0.8024 16.357900 17.453400 22.146700
19   1  0.7378 10.428800 20.810100 22.771000
20   1  0.7993 12.501800  2.668190 22.553600
21   1  0.6466 14.748200  7.011090 21.924100
22   1  0.8931 16.825900 10.315300 22.045200
23   1  0.7219 14.873100 20.962400 22.237300
24   1  0.7868 -0.111624  3.160060 21.410400
25   1  0.8085  1.317020 13.722700 28.719800
26   1  0.8332  3.499310 17.273700 28.693200
27   1  0.7431  1.646030  6.511610 27.894400
28   1  0.8348  3.540120 10.224200 28.985900
29   1  0.7859  5.833620 13.620800 28.726000
30   1  0.7285  7.892370 16.895200 28.421400
31   1  0.8117  1.024670 21.369700 27.663000
32   1  0.7971  3.999940  2.904270 28.571700
33   1  0.7729  6.028340  6.274480 28.635000
34   1  0.8035  8.025130 10.582500 28.547000
35   1  0.7293 10.003300 13.871600 29.038100
36   1  0.7572 11.913800 17.512600 29.083000
37   1  0.7652  5.906910 21.131700 28.294800
38   1  0.8273  8.223030  2.412950 28.625800
39   1  0.8694  9.965050  6.188600 28.454600
40   1  0.8142 12.663400  9.514080 28.644000
41   1  0.7613 14.028000 13.322400 29.018700
42   1  0.8766 16.166000 17.524700 29.361200
43   1  0.7478  9.936010 20.495800 28.854400
44   1  0.8162 12.434800  2.028000 28.435500
45   1  0.7705 14.456000  5.984300 28.202600
46   1  0.7544 16.318800  9.845950 28.082300
47   1  0.7685 14.264400 20.769100 28.407500
48   1  0.7596 16.644100  2.890140 28.476500
49   1  0.6991  1.193630 15.823200  2.342560
50   1  0.6714  4.124890 19.738300  1.576080
51   1  0.8211  0.927861  8.969310  2.762690
52   1  0.7600  3.037260 12.597700  2.675900
53   1  0.6643  5.437370 15.882600  1.708820
54   1  0.8001  7.986690 20.011200  2.331850
55   1  0.7145  1.678010  1.301560  1.656260
56   1  0.7264  4.488750  5.211910  2.630430
57   1  0.7185  5.838670  8.884630  2.599330
58   1  0.7660  7.329110 12.306500  2.511610
59   1  0.8352  9.984860 16.191800  2.474610
60   1  0.7976 12.145800 20.150300  2.498800
61   1  0.7136  6.002750  1.376610  2.543770
62   1  0.7703  8.067980  5.134810  1.989440
63   1  0.8062 10.145300  8.500470  1.789660
64   1  0.7671 12.177700 11.896900  1.904130
65   1  0.8371 14.280800 15.991400  2.220500
66   1  0.7873 16.222200 20.046800  2.422300
67   1  0.7054  9.987260  1.490540  2.569820
68   1  0.7745 12.242600  4.720690  2.287700
69   1  0.7081 13.855000  8.295110  1.771650
70   1  0.7454 15.956900 12.472200  2.359430
71   1  0.7417 14.319900  1.045870  1.527880
72   1  0.7514 16.941400  4.968750  1.827410
73   1  0.7151  2.110110 16.095200  9.157840
74   1  0.8190  4.013800 19.824300  8.897340
75   1  0.7804  1.995500  9.087420  9.259300
76   1  0.7730  4.265920 12.663900  9.159200
77   1  0.7649  5.704340 16.549500  8.906340
78   1  0.8058  8.080310 19.673900  8.719750
79   1  0.8795  2.283680  1.387260  8.398970
80   1  0.8036  4.007810  5.182450  8.653820
81   1  0.8255  6.465670  8.635210  8.525750
82   1  0.8245  8.597680 12.553400  9.060470
83   1  0.6898 10.186200 15.916400  8.986290
84   1  0.7290 11.887700 19.827600  9.000930
85   1  0.7390  6.030150  1.324150  9.078850
86   1  0.7774  8.006780  5.483710  8.454530
87   1  0.7477 10.424000  8.713570  8.763550
88   1  0.7749 12.661300 12.761900  8.801920
89   1  0.7046 14.293200 16.739900  8.286540
90   1  0.7109 16.522500 20.024700  8.964590
91   1  0.7780  9.825110  1.351530  8.760080
92   1  0.7487 12.507100  5.307390  8.671370
93   1  0.6901 14.382600  8.399790  8.491940
94   1  0.7549 16.323000 13.211200  8.590530
95   1  0.6978 14.389800  1.324750  8.811070
96   1  0.8122 16.724100  4.913770  8.305530
97   1  0.7990 16.656400 14.685900 12.374000
98   1  0.8731  1.521150 18.770800 11.851200
99   1  0.7658  0.325105  7.967060 12.640300
100  1  0.8289  2.340800 11.110700 12.718200
101  1  0.7589  3.665030 15.136800 12.582900
102  1  0.8758  6.009650 18.900300 12.085600
103  1  0.7545 16.694600  0.318890 11.867000
104  1  0.7593  1.856620  3.431780 11.937200
105  1  0.6845  3.893320  7.351730 13.241300
106  1  0.8589  6.217980 11.182900 12.025000
107  1  0.8266  8.151290 14.936900 12.731800
108  1  0.7920 10.301300 17.684000 12.503900
109  1  0.7701  3.792080  0.123192 12.028100
110  1  0.7213  6.219020  4.469290 12.805000
111  1  0.7146  8.361650  7.707640 12.402100
112  1  0.7514 10.865400 11.166500 12.760300
113  1  0.8241 12.453700 14.739400 12.363100
114  1  0.8422 14.341600 18.518000 12.431400
115  1  0.8180  7.951620  0.086093 11.896400
116  1  0.7758 10.284600  3.863090 12.836800
117  1  0.7223 12.225200  7.727460 11.796900
118  1  0.7979 14.602400 11.404100 12.312600
119  1  0.7930 11.952000  0.161655 12.550900
120  1  0.7567 14.451200  3.679380 11.860700
121  1  0.7295 16.367300 15.085100 18.589000
122  1  0.8040  2.065110 18.586100 18.489300
123  1  0.7703 16.603400  8.296630 18.388500
124  1  0.8149  1.952270 11.497400 18.583500
125  1  0.7619  3.664650 14.804800 18.720900
126  1  0.7136  5.896910 18.529900 18.253100
127  1  0.7754 -0.105239  0.703384 18.534700
128  1  0.8376  1.968790  3.900240 17.847500
129  1  0.7897  3.398000  8.030600 18.249500
130  1  0.7574  5.872400 11.732500 18.645500
131  1  0.6630  8.116360 15.478800 18.657300
132  1  0.6825 10.411600 19.039800 19.593900
133  1  0.7139  4.267120  0.198504 19.135600
134  1  0.7906  6.182880  4.296590 18.196100
135  1  0.8415  8.195110  7.881080 19.159900
136  1  0.7669 10.480900 11.408300 19.311700
137  1  0.7766 11.949600 15.268300 18.925200
138  1  0.7919 15.001000 19.167300 18.549300
139  1  0.7369  8.676780  0.344385 18.580100
140  1  0.7700  9.795290  3.970810 18.105600
141  1  0.7470 12.220300  7.799020 18.663800
142  1  0.8044 14.514100 11.587900 18.738600
143  1  0.7432 12.216900  0.499373 18.481300
144  1  0.7412 14.286300  4.865050 18.270100
145  2 -0.9173 15.845900 15.007800  0.494860
146  2 -0.8182  1.364220 18.344900  0.340191
147  2 -0.8189 -0.040341  7.426440  0.614933
148  2 -0.8071  1.192310 11.348700  0.480653
149  2 -0.8925  3.416160 14.657200  0.293668
150  2 -0.8627  5.705010 18.392500 -0.021042
151  2 -0.9143 16.152000  0.017059 -0.219264
152  2 -0.8589  1.919540  4.100660  0.145878
153  2 -0.7205  3.635790  8.015820  0.965105
154  2 -0.8606  5.617720 11.661500  0.283567
155  2 -0.8858  8.077230 14.517400  0.921244
156  2 -0.8867  9.679460 18.560500  1.064320
157  2 -0.7944  3.383390  0.236589 29.591600
158  2 -0.8930  6.532600  3.975510  0.405908
159  2 -0.8469  8.090600  7.419680 30.135200
160  2 -0.8492 10.412500 10.534800  0.231305
161  2 -0.8363 12.085800 14.884000  0.714905
162  2 -0.8657 14.269200 18.497000  0.833690
163  2 -0.9051  8.067100  0.186447  0.561619
164  2 -0.7846 10.108300  3.573980  0.119691
165  2 -0.8312 12.237100  6.866230 -0.083433
166  2 -0.9567 14.327600 10.776200  0.255253
167  2 -0.9150 12.352400 -0.155787  0.064050
168  2 -0.8021 14.097100  3.972960 -0.140748
169  2 -0.2963  1.356630 16.406400 27.316200
170  2 -0.2330  3.899160 19.471200 26.234100
171  2 -0.3884  1.581510  9.145790 26.705500
172  2 -0.3555  3.883630 12.196300 27.272900
173  2 -0.4035  5.693640 16.354200 27.036200
174  2 -0.3630  7.971480 19.824500 26.886400
175  2 -0.4228  1.634210  1.730860 26.948100
176  2 -0.3487  4.199160  5.195990 26.680500
177  2 -0.3367  5.796500  8.882070 27.243100
178  2 -0.4268  8.227480 12.578600 27.079700
179  2 -0.3251 10.396800 16.270100 26.998300
180  2 -0.4458 12.074100 19.340100 27.223500
181  2 -0.3456  5.918540  1.748870 26.866100
182  2 -0.3276  7.563130  4.513770 26.868400
183  2 -0.3126 10.549100  8.181770 27.001200
184  2 -0.3116 12.018300 12.619700 27.191200
185  2 -0.2595 14.113300 16.029800 27.500400
186  2 -0.3112 16.756000 18.805800 26.856600
187  2 -0.2926 10.486100  0.756376 26.420100
188  2 -0.2908 11.807100  4.703810 26.767600
189  2 -0.4092 14.120400  9.342560 26.588300
190  2 -0.2071  0.005575 12.751300 26.424200
191  2 -0.3393 14.396000  2.298870 26.647500
192  2 -0.3713 -0.430932  5.219810 26.348300
193  2 -0.4129 -0.203677 14.972700 23.579400
194  2 -0.3336  1.662120 18.819600 24.220700
195  2 -0.4074 16.697800  8.048260 23.619100
196  2 -0.4304  1.744740 11.948200 23.343300
197  2 -0.2398  3.274890 15.609600 24.311500
198  2 -0.4236  6.083370 18.675900 23.699600
199  2 -0.3294 16.684800  0.599514 24.172700
200  2 -0.2846  1.515090  3.919790 23.721700
201  2 -0.3352  3.340080  8.077880 23.805600
202  2 -0.3125  5.669530 11.200600 24.162100
203  2 -0.3160  8.562200 14.765500 24.278800
204  2 -0.2952  9.663640 18.267100 24.259200
205  2 -0.2138  4.129390  1.134300 24.309700
206  2 -0.3746  5.939170  4.171900 23.725500
207  2 -0.3512  8.052080  8.752700 23.865900
208  2 -0.2997 10.531900 11.257500 24.129100
209  2 -0.2303 12.542500 14.884400 24.230200
210  2 -0.3656 14.620000 17.963200 24.097500
211  2 -0.4788  8.449950 22.173700 22.972900
212  2 -0.4366 10.019500  4.274010 23.710700
213  2 -0.3757 12.338900  7.989190 24.058700
214  2 -0.3341 14.826500 11.421300 23.801400
215  2 -0.4418 12.975400 -0.476789 24.054500
216  2 -0.3047 14.731300  3.977040 23.750000
217  2 -0.9021  1.937240 13.933900 10.703200
218  2 -0.9038  3.825520 17.722200 10.913600
219  2 -0.7683  1.289590  6.168260  9.822960
220  2 -0.7826  4.500720 10.011500 10.331100
221  2 -0.7955  6.551850 13.488500 10.849500
222  2 -0.8360  7.902540 17.141300 10.691600
223  2 -0.9485  1.940690 20.938900 10.391200
224  2 -0.8807  3.761740  2.414570 10.320500
225  2 -0.8413  5.859500  6.630080 10.274700
226  2 -0.8364  8.166680  9.831060 10.667500
227  2 -0.8696 10.145000 13.807900 10.827700
228  2 -0.8993 12.523600 17.113400 10.855500
229  2 -0.9775  6.279100 20.604000 10.183700
230  2 -0.7916  8.235460  2.747360 10.779600
231  2 -0.8685 10.408600  6.420930 10.104300
232  2 -0.9025 12.514000 10.390300 10.388800
233  2 -0.8955 14.481600 13.653800 10.570400
234  2 -0.8634 16.474700 17.685900 10.545700
235  2 -0.8541 10.010500 20.995100 10.465600
236  2 -0.7786 12.139700  2.796670 10.670800
237  2 -0.8064 14.216700  6.334400 10.537600
238  2 -0.8328  0.636013 10.210500 11.209700
239  2 -0.8304 13.949200 21.134800 10.913200
240  2 -0.9094  0.285768  2.249700 10.229700
241  2 -0.2628 15.930900 15.082000  6.349610
242  2 -0.3409  1.861330 18.019600  7.158350
243  2 -0.3681 16.781900  7.644290  7.063170
244  2 -0.2773  2.126590 11.855200  7.198940
245  2 -0.4191  4.250650 14.956900  7.470430
246  2 -0.3527  6.201760 18.847900  7.081560
247  2 -0.2541 16.568900  0.210687  6.769430
248  2 -0.3838  2.422940  3.807580  7.122660
249  2 -0.3027  4.018100  8.095200  6.834810
250  2 -0.2850  6.479200 11.191600  7.122980
251  2 -0.3372  7.792410 14.782700  7.404900
252  2 -0.2990 10.520400 19.028000  6.654860
253  2 -0.4008  4.106480 -0.186703  7.216530
254  2 -0.3566  6.065210  3.810990  7.126370
255  2 -0.3318  8.403830  7.480390  6.695310
256  2 -0.3266 10.006300 11.272300  7.161120
257  2 -0.3933 11.936400 14.888700  6.972190
258  2 -0.3173 14.734100 19.012600  6.774980
259  2 -0.3514  8.075550 22.580300  7.019030
260  2 -0.2854 10.071800  4.276290  6.727870
261  2 -0.3433 12.181000  7.473530  6.691310
262  2 -0.3383 14.767200 11.760200  7.000910
263  2 -0.3744 12.204100 -0.109804  7.349040
264  2 -0.3616 15.022000  3.243030  6.831420
265  2 -0.4280  0.794787 13.583200  4.141580
266  2 -0.1750  4.096750 17.098400  4.455240
267  2 -0.2411  1.597050  5.931430  4.452750
268  2 -0.3843  3.018860 10.575200  4.142270
269  2 -0.3157  5.223130 13.726400  4.258230
270  2 -0.2665  7.653300 17.515400  4.029790
271  2 -0.2969  2.342370 21.342700  3.711430
272  2 -0.3193  3.699090  2.754960  3.964850
273  2 -0.4193  6.074040  6.228510  4.207140
274  2 -0.4016  7.951210  9.824690  3.864720
275  2 -0.2958 10.051500 13.419500  3.687610
276  2 -0.3265 12.277400 17.483500  4.085380
277  2 -0.3670  5.914680 21.010500  3.881950
278  2 -0.3417  7.615730  2.658620  4.342020
279  2 -0.3757  9.694550  6.459900  3.668890
280  2 -0.4018 12.329100  9.387160  3.495300
281  2 -0.3682 13.877600 13.541900  3.840480
282  2 -0.3750 16.631000 17.634900  3.897720
283  2 -0.3420  9.962860 21.009100  4.248450
284  2 -0.3927 12.637000  2.208080  3.683930
285  2 -0.3633 13.743000  5.882230  3.969270
286  2 -0.3111 15.927300  9.985140  4.342990
287  2 -0.4086 14.164200 21.222800  3.722350
288  2 -0.4053 16.740000  2.332730  3.245650
289  2 -0.8508  1.901060 16.553400 20.381500
290  2 -0.9198  3.569260 19.972600 20.765700
291  2 -0.8654  1.909490  9.062490 20.536100
292  2 -0.9340  3.503480 12.647200 20.340300
293  2 -0.8588  5.905640 16.247900 20.654400
294  2 -0.8384  7.657650 19.996700 19.974000
295  2 -0.8253  2.020120  1.730450 20.656500
296  2 -0.8280  3.714490  5.356530 19.883900
297  2 -0.8062  5.550180  9.076420 20.082700
298  2 -0.9082  8.089850 12.870900 20.738600
299  2 -0.8948 10.784300 16.621600 20.695600
300  2 -0.8926 12.858600 19.884800 20.774900
301  2 -0.7511  6.466850  1.633030 20.461500
302  2 -0.8070  7.820510  5.176120 20.213600
303  2 -0.8893 10.310500  8.652110 20.668700
304  2 -0.9153 12.417400 12.493600 20.761000
305  2 -0.8118 14.385500 16.291000 20.587600
306  2 -0.8426  0.014273 19.480900 20.193800
307  2 -0.7394 10.605600  1.886400 20.270400
308  2 -0.7263 12.063300  5.182170 20.562200
309  2 -0.8970 14.611200  9.371390 20.281600
310  2 -0.8644 16.756900 12.442000 20.515100
311  2 -0.7590 14.778600  1.547080 20.225200
312  2 -0.8319 16.939300  5.173010 19.673900
313  2 -0.4446  1.788710 13.476500 17.029300
314  2 -0.4045  3.865780 16.704700 16.807100
315  2 -0.3913  1.181180  6.930630 16.515500
316  2 -0.3028  4.241930 10.241600 16.658700
317  2 -0.3142  6.173910 14.079800 16.610400
318  2 -0.2827  8.525700 18.041100 16.719600
319  2 -0.3303  2.006280 21.510200 17.004500
320  2 -0.4137  3.929330  2.595150 17.015500
321  2 -0.3467  5.996770  7.281020 17.068300
322  2 -0.3088  8.532940 10.448900 17.654300
323  2 -0.3062  9.938150 13.430100 17.165000
324  2 -0.2608 11.668700 17.587800 17.092400
325  2 -0.2204  5.922420 21.307200 16.515700
326  2 -0.3788  7.924660  2.663310 16.481700
327  2 -0.4476  9.859190  7.019180 17.490900
328  2 -0.3342 12.056700 10.403500 17.197100
329  2 -0.3753 14.467600 13.939000 17.103300
330  2 -0.3384 16.552300 17.843700 16.705900
331  2 -0.3761 10.789000 21.014300 16.962700
332  2 -0.4145 12.206200  3.442860 16.753800
333  2 -0.3391 14.781700  7.029420 16.690700
334  2 -0.3926 16.473000 10.327700 16.890700
335  2 -0.3580 14.900400 21.854800 16.866600
336  2 -0.2862 16.614400  3.181800 16.448700
337  2 -0.3831  1.705470 16.740400 13.732900
338  2 -0.3045  3.674360 19.911900 13.818800
339  2 -0.4907  2.182880  9.092150 14.366900
340  2 -0.3652  4.589510 12.084900 14.097400
341  2 -0.3724  6.072700 16.690800 13.962700
342  2 -0.4010  8.148700 19.917600 13.342500
343  2 -0.2829  1.922760  1.306520 14.076200
344  2 -0.5045  3.724940  4.614870 14.038700
345  2 -0.3733  6.274540  9.001620 13.974500
346  2 -0.2408  8.462380 12.315100 14.344700
347  2 -0.4197 10.497900 15.815500 14.224300
348  2 -0.3177 12.676400 19.025400 14.185000
349  2 -0.3506  6.474430  1.530850 13.663900
350  2 -0.4330  8.066170  4.906130 14.584600
351  2 -0.3320 10.394800  8.858740 14.295600
352  2 -0.4516 13.079100 12.719400 13.917500
353  2 -0.3129 14.767000 15.801200 14.118900
354  2 -0.3469 16.704600 20.379900 13.737500
355  2 -0.3035 10.127000  0.608096 14.457800
356  2 -0.3819 12.456300  5.191030 13.526500
357  2 -0.2402 14.422700  8.879920 14.151100
358  2 -0.3558  0.263546 12.244600 13.990800
359  2 -0.3066 14.489300  1.553830 14.012600
360  2 -0.2759 16.036500  5.358950 13.759600

