Generated by pymatgen.io.lammps.data.LammpsData

80  atoms

 2  atom types

0.000000 11.918827  xlo xhi
0.000000 12.642605  ylo yhi
0.000000 14.084790  zlo zhi

Masses

1  106.42
2   78.96

Atoms

1   1  1.382700  1.481660 -0.021829
2   1  1.499410  1.433760  6.966440
3   1  1.366770  7.812820 -0.025256
4   1  1.505550  7.753000  6.965590
5   1  7.289770  1.484200  0.097196
6   1  7.629320  1.360610  6.935630
7   1  7.297540  7.806470  0.094361
8   1  7.633900  7.683220  6.931750
9   1  4.336220  1.227460 13.990000
10  1  4.561790  1.385410  6.961720
11  1  4.350210  7.546030 14.005700
12  1  4.569350  7.707130  6.956500
13  1 10.247400  1.479720  0.238012
14  1 10.504800  1.277520  7.128090
15  1 10.244900  7.810210  0.243722
16  1 10.511300  7.606190  7.130110
17  1  1.365510  4.388270 -0.026672
18  1  1.503580  4.443440  6.965290
19  1  1.383600 10.712100 -0.020630
20  1  1.501160 10.764300  6.967130
21  1  7.302590  4.399990  0.094378
22  1  7.630930  4.511660  6.935610
23  1  7.284060 10.704200  0.096554
24  1  7.632430 10.839300  6.931640
25  1  4.354790  4.647090 14.005000
26  1  4.563120  4.490550  6.961750
27  1  4.330330 10.974500 13.991900
28  1  4.567840 10.811500  6.956270
29  1 10.246800  4.390580  0.243956
30  1 10.507500  4.597770  7.133090
31  1 10.246300 10.714300  0.236109
32  1 10.508700 10.913000  7.125110
33  2  3.165930  2.919970  1.119230
34  2  3.021200  2.937540  8.362070
35  2  3.170740  9.277500  1.120760
36  2  3.027690  9.259640  8.356360
37  2  8.745010  2.936130  1.606240
38  2  9.141190  2.935590  8.257720
39  2  8.749740  9.261540  1.606960
40  2  9.137990  9.261630  8.255720
41  2 11.864700  0.956911  2.118130
42  2  0.101924  1.004610  9.032340
43  2 11.841700  7.260110  2.125090
44  2  0.110591  7.327660  9.033810
45  2  5.727220  0.922313  1.891460
46  2  6.121540  0.946320  8.866950
47  2  5.743000  7.247540  1.898850
48  2  6.125030  7.268510  8.861750
49  2 11.844400  4.933390  2.117030
50  2  0.107653  4.873520  9.035550
51  2 11.862200 11.244400  2.126600
52  2  0.104639 11.188900  9.030900
53  2  5.748180  4.942990  1.902030
54  2  6.120480  4.931270  8.865590
55  2  5.722180 11.280700  1.888330
56  2  6.126240 11.248200  8.862880
57  2  3.037340  1.724020  5.095720
58  2  2.757960  1.754890 12.072900
59  2  3.035000  8.044340  5.089920
60  2  2.783520  8.069790 12.083100
61  2  9.234780  1.718190  4.994950
62  2  8.907900  1.754760 12.198000
63  2  9.244260  8.033850  4.998550
64  2  8.919110  8.088130 12.192300
65  2  3.035660  4.153040  5.091830
66  2  2.780090  4.128670 12.086700
67  2  3.036530 10.473200  5.093840
68  2  2.762190 10.441400 12.069400
69  2  9.241370  4.163070  5.003270
70  2  8.921630  4.106170 12.186200
71  2  9.238130 10.479300  4.990300
72  2  8.905990 10.445200 12.203000
73  2  0.134515 12.418400  5.685290
74  2 11.710800 -0.222535 12.996300
75  2  0.140831  6.100180  5.686790
76  2 11.753400  6.098650 13.009600
77  2  6.023340 -0.220972  5.635910
78  2  6.053070 12.417400 12.670800
79  2  6.027050  6.096990  5.641610
80  2  6.087540  6.100960 12.678200

