Generated by pymatgen.io.lammps.data.LammpsData

320  atoms

  2  atom types

0.000000 16.864293  xlo xhi
0.000000 23.165087  ylo yhi
0.000000 24.472453  zlo zhi

Masses

1  208.9804
2   78.9600

Atoms

1    1  0.8042  1.074040 11.146200 10.484300
2    1  0.8319  1.053980 11.217900 23.293400
3    1  0.8354  1.056510 22.937500 10.512200
4    1  0.8588  1.235380 22.703600 22.556100
5    1  0.8796  5.268560 11.447600 10.447400
6    1  0.8035  5.297710 11.172200 22.690700
7    1  0.8247  5.703760 23.107000 10.760600
8    1  0.7486  5.530870 23.157900 22.744900
9    1  0.8440  9.700250 11.473000 10.475900
10   1  0.8238  9.288410 11.274300 22.667600
11   1  0.8089  9.600320 22.717500 10.348000
12   1  0.8174  9.691720 23.100300 22.576900
13   1  0.8035 13.857800 11.493600 10.835500
14   1  0.8199 13.617300 11.444100 23.137200
15   1  0.7637 13.819500 22.584800 10.484300
16   1  0.8355 13.703300 23.070800 22.579600
17   1  0.7986  2.992720  0.196986  2.261690
18   1  0.8689  2.880870  0.525583 14.068700
19   1  0.7862  3.540080 11.986000  1.880560
20   1  0.8442  3.206700 12.093100 14.117100
21   1  0.8081  7.340910  0.700665  1.707800
22   1  0.8154  7.483040  1.123670 14.151700
23   1  0.7957  7.599830 12.132000  2.069480
24   1  0.8492  7.154130 12.099900 14.142400
25   1  0.7964 11.704500  0.450609  1.337440
26   1  0.8530 12.037100  0.495775 13.981100
27   1  0.8540 11.803200 12.120000  2.104130
28   1  0.8412 11.436500 12.410700 14.180200
29   1  0.8212 15.922400  0.258650  1.702730
30   1  0.8105 15.785200  0.212237 14.223200
31   1  0.7676 15.836700 12.005500  2.229460
32   1  0.8254 15.799200 12.095000 13.941700
33   1  0.7913  3.330710  5.600450  8.415890
34   1  0.8597  3.452160  5.827290 19.665400
35   1  0.8149  3.066060 17.012000  8.236790
36   1  0.8195  2.940900 17.404400 19.956400
37   1  0.8082  7.490860  5.439610  8.018380
38   1  0.8320  7.480330  5.577410 19.835300
39   1  0.7955  7.134590 17.233000  8.429720
40   1  0.8160  7.417000 17.196400 20.176200
41   1  0.7991 11.971100  5.226720  8.230620
42   1  0.8022 11.632700  5.589830 20.015600
43   1  0.8709 11.557500 17.050300  8.435520
44   1  0.8560 11.671300 17.360200 19.947400
45   1  0.8186 15.702300  5.276960  8.166060
46   1  0.7924 15.960000  5.638280 19.913800
47   1  0.8456 15.844000 17.107600  8.057300
48   1  0.8229 16.008000 17.665300 20.281900
49   1  0.8252  1.212050  6.219850  4.418920
50   1  0.7810  1.321520  6.376350 15.904800
51   1  0.8097  0.797880 17.797800  4.809080
52   1  0.7764  1.334920 18.181900 16.510400
53   1  0.7968  5.413750  6.614960  4.204810
54   1  0.8366  5.618070  6.500260 16.543800
55   1  0.8517  5.577570 17.984300  4.451080
56   1  0.8785  5.398830 18.010000 16.938900
57   1  0.7995  9.988370  6.124170  4.815190
58   1  0.8168  9.662530  6.505320 16.341700
59   1  0.8172  9.501520 17.615300  4.551980
60   1  0.7900  9.321380 18.284700 15.992700
61   1  0.8119 13.935400  5.677650  4.685260
62   1  0.8438 14.080400  6.224330 16.626600
63   1  0.8536 13.778000 17.681000  4.529450
64   1  0.8611 13.943900 17.777000 16.894500
65   1  0.8783  1.081530  1.955490  5.999300
66   1  0.8575  1.282630  2.220790 17.875300
67   1  0.7888  1.129550 13.697800  5.825330
68   1  0.8428  1.331170 14.026600 18.093400
69   1  0.8360  5.258190  1.715730  5.397340
70   1  0.8564  5.410760  2.438770 18.158800
71   1  0.8592  5.439190 13.269700  5.816720
72   1  0.8137  5.581340 13.420600 18.431000
73   1  0.8895  9.328440  1.883640  6.094740
74   1  0.8422  9.463860  2.566940 17.905400
75   1  0.8423  9.928680 13.539200  5.495330
76   1  0.8129  9.421980 13.665700 18.202300
77   1  0.8239 13.847000  2.059130  5.990850
78   1  0.8108 13.918000  2.201450 18.165100
79   1  0.8348 13.629000 13.575700  6.336600
80   1  0.8170 13.493900 14.134800 18.396800
81   1  0.7871  2.877100  9.745840  7.023540
82   1  0.8182  3.209060  9.810410 18.294700
83   1  0.8499  3.067950 21.301800  6.437390
84   1  0.8796  3.406060 21.541100 18.483800
85   1  0.7984  7.600680  9.337820  6.089740
86   1  0.8193  7.432780  9.832190 18.640100
87   1  0.8004  7.299350 21.045300  6.517020
88   1  0.8392  7.311280 21.116400 18.534200
89   1  0.8431 11.536300  9.663170  6.386790
90   1  0.8661 11.618800  9.552620 18.504500
91   1  0.7985 11.330800 20.968900  6.160130
92   1  0.8503 11.430600 21.469100 18.478100
93   1  0.8328 15.679000  9.626580  6.573650
94   1  0.8383 15.589400 10.200300 19.037000
95   1  0.8246 15.904800 21.229700  6.397220
96   1  0.8242 15.627100 21.334700 18.886800
97   1  0.8510  3.198740  7.686410 12.213400
98   1  0.8607  3.635020  7.632180  0.156584
99   1  0.8772  3.473960 19.573400 12.236100
100  1  0.8153  3.534600 19.435600  0.381766
101  1  0.8189  7.729460  8.272190 12.191700
102  1  0.7946  7.642960  7.832850  0.064428
103  1  0.8174  7.211660 19.532500 12.816700
104  1  0.8552  7.475590 19.597300 -0.012910
105  1  0.8085 11.683100  7.933730 11.988900
106  1  0.8422 11.505500  7.693530  0.285452
107  1  0.8519 11.883200 19.396900 12.676800
108  1  0.8613 11.970000 19.880100  0.468008
109  1  0.8135 15.782400  7.893320 12.598900
110  1  0.8263 15.913600  7.692480  0.061889
111  1  0.8268 15.816700 19.330300 12.774900
112  1  0.8718 16.140300 19.173600  0.668705
113  1  0.8097  1.268000  4.121870 24.845400
114  1  0.8514  0.987273  3.679180 11.959600
115  1  0.8524  1.356650 16.004800 24.613500
116  1  0.8745  1.430020 15.669100 12.153300
117  1  0.8466  5.499320  4.026250 24.420700
118  1  0.8184  5.505900  3.997290 11.948500
119  1  0.8347  5.521280 15.372800 24.212200
120  1  0.8255  5.346880 15.580400 12.050400
121  1  0.8246  9.954160  3.933340 24.354800
122  1  0.8819  9.654930  3.827910 12.291100
123  1  0.8360  9.906520 15.555100 24.228300
124  1  0.8145  9.355910 15.322800 12.051700
125  1  0.8130 13.991700  3.788370 24.018800
126  1  0.8335 14.062100  4.076800 12.349300
127  1  0.8201 13.856200 15.264100 24.440200
128  1  0.8670 13.862700 15.726300 12.071900
129  2 -0.4722  0.855750  3.307040  8.854090
130  2 -0.4299  1.206150  3.667370 20.504900
131  2 -0.5454  1.002830 15.392200  8.795350
132  2 -0.4631  1.151620 15.610000 20.996700
133  2 -0.4815  5.565970  3.425690  8.691890
134  2 -0.5222  5.539690  3.889380 20.536200
135  2 -0.5103  5.495070 14.982100  9.096520
136  2 -0.5115  5.106440 15.531700 20.653700
137  2 -0.4807  9.733390  3.334890  8.587700
138  2 -0.4872  9.418120  3.582430 20.618500
139  2 -0.4896  9.507680 15.450900  8.937020
140  2 -0.5232  9.730540 15.372100 20.852100
141  2 -0.5407 13.828800  3.417060  9.022440
142  2 -0.5380 13.662300  3.794150 20.961000
143  2 -0.5253 13.724700 15.203200  8.807190
144  2 -0.5483 13.695000 15.928800 20.690900
145  2 -0.5138  3.243130  8.065330  4.245250
146  2 -0.4993  3.590930  8.376340 15.456200
147  2 -0.4838  2.877850 19.596700  3.695100
148  2 -0.4964  3.554900 19.886000 15.933500
149  2 -0.5555  7.861130  8.092820  3.645650
150  2 -0.5127  7.582200  8.611040 15.971500
151  2 -0.5549  7.707410 19.481600  3.925310
152  2 -0.5646  6.926630 20.118700 15.973000
153  2 -0.4887 11.776200  7.861620  4.118910
154  2 -0.4820 12.064200  8.172280 16.122100
155  2 -0.5380 11.717200 19.713200  3.725370
156  2 -0.5233 11.864900 19.487900 16.119200
157  2 -0.4315 15.426000  7.895530  3.968980
158  2 -0.4790 15.844900  8.355710 16.171900
159  2 -0.5779 15.895500 19.596300  3.798890
160  2 -0.5598 15.701900 19.529300 15.784300
161  2 -0.6106  3.319850  9.406250 10.057600
162  2 -0.4947  3.067600  9.559770 22.140600
163  2 -0.4588  3.464260 20.906100  9.671570
164  2 -0.5090  3.680550 21.239900 21.711000
165  2 -0.4831  7.646510  9.722170  9.512490
166  2 -0.5293  7.104080  9.208870 21.758300
167  2 -0.5388  7.556800 20.816600 10.050400
168  2 -0.5118  7.583050 20.960000 21.822200
169  2 -0.5924 11.713600  9.637350  9.884020
170  2 -0.5260 11.626900  9.598160 22.614600
171  2 -0.4918 11.546600 20.735900  9.742090
172  2 -0.5484 11.783500 21.359900 22.064700
173  2 -0.5526 15.833600  9.411630  9.965930
174  2 -0.5637 15.697900  9.590310 22.358800
175  2 -0.4878 16.311000 20.771600  9.748830
176  2 -0.4806 15.900400 21.061500 22.328000
177  2 -0.5643  1.081980  2.220870  2.931280
178  2 -0.5412  0.811818  2.231490 14.779500
179  2 -0.5056  1.423530 13.932700  2.503420
180  2 -0.4907  1.102940 14.026400 14.647100
181  2 -0.5918  5.437150  2.275870  2.543410
182  2 -0.5003  5.253090  2.762140 14.624100
183  2 -0.4997  5.485850 13.989100  2.824510
184  2 -0.4845  5.191140 14.003700 14.760000
185  2 -0.5249  9.939800  2.342790  2.178270
186  2 -0.5338  9.846270  2.459360 14.772700
187  2 -0.5789  9.618020 13.838600  2.498530
188  2 -0.5362  9.368850 13.887600 14.812400
189  2 -0.5025 13.660900  2.319580  2.285090
190  2 -0.5149 13.716500  2.662090 14.720900
191  2 -0.5315 13.606500 14.008900  3.036280
192  2 -0.4950 13.715700 14.018900 14.727500
193  2 -0.4801  0.945550 11.012600  4.446960
194  2 -0.4995  1.065990 11.108800 17.183600
195  2 -0.5901  1.156930 22.558300  4.902150
196  2 -0.4964  1.186660 22.546900 16.949500
197  2 -0.5207  4.849800 10.886300  4.623930
198  2 -0.5949  5.391320 11.229300 16.878000
199  2 -0.5594  5.288520 22.143700  4.896030
200  2 -0.4689  5.090030 22.767600 16.743000
201  2 -0.5403  9.964650 10.926500  4.436700
202  2 -0.5092  9.722600 11.268200 16.973900
203  2 -0.4824  9.026600 22.534100  4.625820
204  2 -0.4734  9.610470 22.727200 16.839100
205  2 -0.5370 13.649300 11.065800  5.067370
206  2 -0.4783 13.689000 11.414700 17.313400
207  2 -0.4652 13.889900 22.647400  4.560610
208  2 -0.5425 13.890700 22.588600 17.073700
209  2 -0.4879  3.306190  0.906454  7.523550
210  2 -0.4806  3.135190  1.101680 19.662200
211  2 -0.5305  3.333230 12.501700  7.844530
212  2 -0.4580  3.008550 12.421800 20.000600
213  2 -0.5222  7.483090  0.573786  7.670440
214  2 -0.5103  7.375510  0.761437 19.164900
215  2 -0.4911  7.652370 12.247500  7.024070
216  2 -0.5917  7.572520 12.512400 20.126500
217  2 -0.4867 11.557900  0.459534  7.467590
218  2 -0.4713 11.351500  0.906182 19.766800
219  2 -0.5073 11.401400 12.621400  7.804850
220  2 -0.4653 11.526500 12.191700 20.192400
221  2 -0.5109 15.811600  0.741473  7.704540
222  2 -0.5051 16.149000  0.719137 19.788700
223  2 -0.5319 16.209900 12.308300  7.691170
224  2 -0.4426 15.464700 12.933600 20.019400
225  2 -0.5992  3.563490  5.446160  1.668210
226  2 -0.5138  3.023110  5.179090 13.591200
227  2 -0.5252  3.625280 16.770400  1.477030
228  2 -0.5282  3.361160 16.960800 13.545800
229  2 -0.5317  7.531590  5.157820  1.421230
230  2 -0.5063  7.879110  5.330120 13.710100
231  2 -0.4594  7.547530 16.837300  1.316440
232  2 -0.5422  7.420480 16.987200 14.031100
233  2 -0.5245 12.270600  5.283210  1.231880
234  2 -0.4647 11.634100  5.464760 14.018700
235  2 -0.4770 11.901800 16.755900  1.446420
236  2 -0.4761 11.737100 16.701200 13.803800
237  2 -0.5365 15.886000  5.252630  1.675900
238  2 -0.5727 16.298300  5.336720 13.831600
239  2 -0.5737 15.874000 16.662300  1.496660
240  2 -0.5174 15.968200 16.556800 13.680400
241  2 -0.5435  0.977693  6.545420 10.805400
242  2 -0.4855  1.258450  6.297570 23.017700
243  2 -0.5049  1.373690 18.233100 10.889800
244  2 -0.5409  1.101010 18.404300 23.195200
245  2 -0.5560  5.676720  6.603360 11.058000
246  2 -0.4788  5.230880  6.495630 22.794400
247  2 -0.6095  5.491880 18.196900 11.036000
248  2 -0.5319  5.559050 18.102800 23.110800
249  2 -0.5509  9.814660  6.387590 10.815800
250  2 -0.5294  9.745560  6.582580 22.690600
251  2 -0.4980  9.764110 18.281700 11.296600
252  2 -0.4620  9.672810 18.486600 23.280200
253  2 -0.5692 14.013900  6.441100 10.766000
254  2 -0.4843 14.008800  6.636220 22.819300
255  2 -0.5783 13.967300 18.226200 10.997300
256  2 -0.4311 13.958700 18.347500 23.412000
257  2 -0.5959  1.305380  9.539990  1.039780
258  2 -0.5986  1.106280 10.131400 13.417800
259  2 -0.6401  1.500900 21.553800  0.855611
260  2 -0.6379  1.135490 21.786600 13.208300
261  2 -0.6607  5.537760  9.580380  0.828819
262  2 -0.6011  5.211110 10.200500 12.732700
263  2 -0.6361  5.428000 21.802600  1.173240
264  2 -0.6278  5.065570 21.877400 12.939400
265  2 -0.5693  9.582190 10.155300  1.074960
266  2 -0.6182  9.515880 10.546600 13.289000
267  2 -0.6400  9.477350 21.685700  0.651816
268  2 -0.5671  9.921720 21.897600 13.371000
269  2 -0.6272 13.679200 10.447300  1.295700
270  2 -0.6236 13.654600 10.106600 13.244300
271  2 -0.6505 14.024900 21.603300  0.779360
272  2 -0.6965 13.685900 21.491600 13.283200
273  2 -0.6311  2.987590  1.712450 11.544700
274  2 -0.5609  3.084510  2.111930 23.882200
275  2 -0.6166  3.265600 13.445900 11.538200
276  2 -0.5714  3.125970 13.232200 23.712300
277  2 -0.6909  7.555580  1.865640 11.625100
278  2 -0.6149  7.583550  2.120230 23.354400
279  2 -0.6442  7.483940 12.919200 11.457800
280  2 -0.6505  7.241920 13.093500 23.685300
281  2 -0.5757 11.498800  1.798000 11.624800
282  2 -0.6878 11.738800  1.788600 23.243500
283  2 -0.6193 11.678600 13.683600 11.354800
284  2 -0.6350 11.549100 13.360400 23.628400
285  2 -0.6282 15.836400  1.561310 11.492600
286  2 -0.6057 15.992800  1.208290 23.484600
287  2 -0.6251 15.908400 13.199900 11.393400
288  2 -0.5877 16.071400 13.418900 23.731200
289  2 -0.5491  3.249930  4.365310  5.829790
290  2 -0.6426  3.665420  4.411690 17.222500
291  2 -0.5367  3.332430 15.912200  5.236850
292  2 -0.5683  3.303680 15.656800 17.177300
293  2 -0.5464  7.546540  3.894310  5.087250
294  2 -0.7100  7.381590  4.566360 17.285700
295  2 -0.5413  7.471690 15.460200  5.152080
296  2 -0.6208  7.229110 16.097600 17.630000
297  2 -0.6582 11.510500  3.781960  5.634310
298  2 -0.6187 11.848600  4.497560 17.330000
299  2 -0.6153 11.773200 15.837700  5.287570
300  2 -0.5905 11.623700 16.079700 17.289300
301  2 -0.6746 16.178600  3.978850  5.509330
302  2 -0.6311 15.940500  3.981140 17.269100
303  2 -0.6795 15.655200 15.987400  5.436080
304  2 -0.6491 16.208200 16.231800 17.773500
305  2 -0.5867  1.007140  7.439160  7.251780
306  2 -0.5870  1.234720  7.550440 19.127500
307  2 -0.6262  1.079010 19.093800  7.331280
308  2 -0.6770  1.376630 19.497800 19.336400
309  2 -0.5882  5.587910  7.390330  7.509770
310  2 -0.6817  5.261210  7.652050 19.018000
311  2 -0.6544  5.073430 18.806800  6.990250
312  2 -0.6882  5.138690 19.171100 19.118300
313  2 -0.6417  9.567910  7.359970  7.266470
314  2 -0.6648  9.536370  7.785160 19.004500
315  2 -0.6411  9.606350 18.623700  7.363140
316  2 -0.6287  9.568800 19.196800 19.161000
317  2 -0.6351 13.745900  7.225290  6.971290
318  2 -0.6276 13.770900  7.527950 19.113600
319  2 -0.6039 13.696900 18.993800  7.185680
320  2 -0.6656 13.726200 19.204200 19.278000

