Generated by pymatgen.io.lammps.data.LammpsData

320  atoms

  2  atom types

0.000000 16.926427  xlo xhi
0.000000 23.215563  ylo yhi
0.000000 24.472453  zlo zhi

Masses

1  208.9804
2   78.9600

Atoms

1    1  0.8426  0.938480 11.231800 10.462300
2    1  0.8127  0.928273 11.168300 22.732400
3    1  0.8191  0.870097 22.956600 10.639600
4    1  0.8215  0.793828 22.734200 22.884100
5    1  0.8104  5.119320 11.205600 10.507500
6    1  0.8305  5.023410 11.139400 22.698000
7    1  0.8416  5.101390 22.615000 10.648500
8    1  0.8275  5.143910 22.845300 22.851900
9    1  0.8303  9.463390 11.160200 10.369800
10   1  0.8377  9.366560 11.193500 22.836000
11   1  0.8334  9.340980 22.897400 10.534300
12   1  0.8315  9.246920 22.889100 22.825800
13   1  0.8255 13.626500 11.317400 10.534800
14   1  0.8314 13.491500 11.353500 22.857000
15   1  0.8117 13.668500 22.864900 10.479800
16   1  0.8302 13.437700 22.816100 22.964900
17   1  0.8419  3.002480  0.493160  1.819140
18   1  0.8255  2.846430  0.368701 14.052300
19   1  0.8474  3.030210 12.063300  1.622200
20   1  0.8293  2.855280 11.969200 13.825300
21   1  0.8477  7.321050  0.495588  1.869950
22   1  0.8374  7.232660  0.394025 14.024600
23   1  0.8453  7.304870 12.059500  1.806610
24   1  0.8130  7.168290 12.094700 13.947200
25   1  0.8246 11.382900  0.187556  1.704550
26   1  0.8267 11.392400  0.287373 13.995100
27   1  0.8312 11.469800 11.987900  1.759530
28   1  0.8103 11.588700 12.035100 13.817800
29   1  0.8121 15.672000  0.480748  1.715440
30   1  0.8119 15.660100  0.367053 13.819200
31   1  0.8600 15.855500 11.947700  1.722420
32   1  0.8092 15.572700 11.930900 13.860300
33   1  0.8369  3.044560  5.565620  7.598240
34   1  0.8424  3.049790  5.286550 20.135100
35   1  0.8438  2.967820 17.153500  7.686160
36   1  0.8235  2.984380 17.002900 20.056500
37   1  0.8331  7.268660  5.491100  7.578510
38   1  0.8389  7.179930  5.423300 20.183700
39   1  0.8172  7.179580 16.987100  7.711030
40   1  0.8340  7.213160 16.974800 20.081600
41   1  0.8272 11.534500  5.479740  7.657520
42   1  0.8166 11.368200  5.424330 20.118700
43   1  0.8235 11.474300 17.051000  7.847400
44   1  0.8359 11.300000 16.989000 20.183900
45   1  0.8282 15.820700  5.415240  7.646400
46   1  0.8150 15.741200  5.380790 20.237600
47   1  0.8240 15.708600 16.945100  7.771550
48   1  0.8264 15.716700 16.921500 19.987900
49   1  0.8308  0.919882  6.374970  4.269160
50   1  0.8492  0.960133  6.126780 16.756600
51   1  0.8399  0.907216 17.830200  4.292680
52   1  0.8270  0.738482 17.842200 16.716000
53   1  0.8204  5.000780  6.214660  4.307510
54   1  0.8223  5.100630  6.019760 16.807600
55   1  0.8205  5.116180 17.675900  4.393860
56   1  0.7818  4.929190 17.820400 16.536400
57   1  0.8295  9.398200  6.159430  4.280900
58   1  0.8281  9.348490  6.179350 16.716800
59   1  0.8409  9.368020 17.798900  4.473510
60   1  0.8284  9.388190 17.973700 16.773300
61   1  0.8292 13.620600  6.125140  4.335120
62   1  0.8178 13.454900  6.328250 16.711100
63   1  0.8223 13.667200 17.654400  4.329080
64   1  0.8364 13.664200 17.790100 16.705200
65   1  0.8344  0.978730  2.171320  5.824360
66   1  0.8564  0.747653  1.963210 17.994100
67   1  0.8552  0.911512 13.553500  5.737320
68   1  0.8324  0.855462 13.526500 18.116200
69   1  0.8094  5.224630  2.002630  5.740530
70   1  0.8385  5.129070  1.992400 17.984600
71   1  0.8092  5.133680 13.632800  6.032580
72   1  0.8297  5.010170 13.594700 17.949900
73   1  0.8323  9.302490  2.041090  5.814560
74   1  0.8392  9.277220  1.952120 18.186200
75   1  0.8339  9.533140 13.563000  5.906090
76   1  0.8249  9.318190 13.498600 17.875400
77   1  0.8279 13.589800  1.846020  5.776790
78   1  0.8243 13.603600  2.007980 18.012900
79   1  0.8185 13.708400 13.626000  5.890380
80   1  0.8487 13.541500 13.627900 18.097700
81   1  0.8215  2.993710  9.790280  6.334130
82   1  0.8267  3.050960  9.566500 18.800100
83   1  0.8305  2.858030 21.297100  6.352380
84   1  0.8242  2.871420 21.177500 18.489700
85   1  0.8318  7.352960  9.633610  6.344600
86   1  0.8256  7.196490  9.775360 18.536600
87   1  0.8263  7.161140 21.425600  6.284100
88   1  0.8424  7.168760 21.188000 18.679800
89   1  0.8449 11.454400  9.517350  6.367500
90   1  0.8357 11.406700  9.818640 18.567000
91   1  0.8323 11.355200 21.189500  6.247320
92   1  0.8368 11.484800 21.199900 18.728000
93   1  0.8352 15.598600  9.611130  6.420520
94   1  0.8378 15.673900  9.724400 18.517100
95   1  0.8256 15.828600 21.249100  6.300860
96   1  0.8324 15.669400 21.217500 18.520600
97   1  0.8356  2.975080  7.792860 12.588700
98   1  0.8417  2.970580  7.692640  0.342817
99   1  0.8178  3.113820 19.364800 12.700900
100  1  0.8009  2.943170 19.244800  0.344071
101  1  0.8149  7.237720  7.635270 12.615700
102  1  0.8198  7.041700  7.816480  0.109964
103  1  0.8225  7.229120 19.483600 12.705900
104  1  0.8284  7.255740 19.291200  0.335134
105  1  0.8309 11.410900  7.748700 12.493400
106  1  0.8384 11.362500  7.892350  0.079161
107  1  0.8230 11.390700 19.508100 12.567000
108  1  0.8348 11.404600 19.336500  0.188168
109  1  0.8421 15.710800  7.744440 12.418300
110  1  0.8392 15.612000  7.695820  0.178218
111  1  0.8408 15.686700 19.356400 12.559700
112  1  0.8309 15.705300 19.351500  0.337077
113  1  0.8318  0.731639  3.760720 24.333000
114  1  0.8300  0.838177  3.791010 11.924500
115  1  0.8363  0.851632 15.363300 24.386000
116  1  0.8436  0.827261 15.441300 11.742600
117  1  0.8360  5.159660  3.892270 24.296400
118  1  0.8300  5.022380  3.945700 12.030000
119  1  0.8311  5.165940 15.383100 24.163800
120  1  0.8142  4.971940 15.561500 12.098900
121  1  0.8546  9.448880  3.724720 24.298500
122  1  0.8347  9.309890  3.630710 11.996600
123  1  0.8428  9.374370 15.217700 24.285300
124  1  0.8364  9.337550 15.492500 11.973100
125  1  0.8253 13.695600  4.048050 24.220700
126  1  0.8447 13.567600  3.826720 11.929000
127  1  0.8289 13.590800 15.414600 24.419400
128  1  0.8198 13.546700 15.676000 11.988200
129  2 -0.5452  0.948406  3.701830  8.310510
130  2 -0.5088  0.875173  3.569590 20.784700
131  2 -0.5140  0.986789 15.256500  8.394220
132  2 -0.4956  0.947618 14.997700 20.799300
133  2 -0.5078  5.123280  3.758710  8.322750
134  2 -0.5252  5.131760  3.490340 20.778500
135  2 -0.5443  4.980350 15.243800  8.398850
136  2 -0.5027  5.080960 15.150700 20.635200
137  2 -0.5051  9.416540  3.546240  8.284410
138  2 -0.5059  9.302630  3.449690 20.886300
139  2 -0.5097  9.453820 15.103600  8.424400
140  2 -0.5174  9.345620 15.107300 20.584700
141  2 -0.4978 13.488400  3.529260  8.376410
142  2 -0.5227 13.384900  3.509780 20.667200
143  2 -0.5257 13.613700 15.124700  8.694330
144  2 -0.5074 13.527600 15.173400 20.609000
145  2 -0.5448  3.078040  8.088550  3.589520
146  2 -0.5038  3.061060  7.953690 16.049200
147  2 -0.5258  3.063540 19.592200  3.749290
148  2 -0.5582  2.701140 19.768600 15.856300
149  2 -0.5104  7.176070  8.017260  3.749530
150  2 -0.5164  7.161740  7.972300 15.993800
151  2 -0.5120  7.266800 19.623900  3.787920
152  2 -0.5331  7.303470 19.707800 15.997900
153  2 -0.5050 11.592100  8.026700  3.691630
154  2 -0.5147 11.434400  8.200870 15.891500
155  2 -0.5137 11.526000 19.650000  3.761390
156  2 -0.5184 11.546600 19.735100 16.115100
157  2 -0.5214 15.643300  8.084280  3.742920
158  2 -0.4969 15.673600  8.041740 15.994800
159  2 -0.5330 15.741300 19.587200  3.615380
160  2 -0.5511 15.658400 19.674700 16.057400
161  2 -0.5258  2.972470  9.448200  9.793070
162  2 -0.5275  2.996230  9.179420 21.952500
163  2 -0.5014  2.837680 20.979600  9.956970
164  2 -0.5011  2.987270 20.950000 22.116300
165  2 -0.5001  7.372830  9.300420  9.835500
166  2 -0.5176  7.209390  9.323830 22.050000
167  2 -0.5063  7.237860 21.021700  9.877330
168  2 -0.5117  7.283030 20.893800 22.156700
169  2 -0.5230 11.647500  9.355900  9.883130
170  2 -0.5363 11.368100  9.463350 21.985300
171  2 -0.5107 11.403000 21.052700  9.832840
172  2 -0.5346 11.374600 20.895300 22.230000
173  2 -0.5134 15.816300  9.359630  9.893440
174  2 -0.4999 15.618600  9.389580 22.121400
175  2 -0.5017 15.795000 20.945700  9.863890
176  2 -0.5081 15.542800 20.976000 22.197900
177  2 -0.5244  0.893781  2.321880  2.485690
178  2 -0.5120  0.879615  2.367240 14.706700
179  2 -0.5470  0.934542 13.807300  2.380560
180  2 -0.4829  0.709018 13.810800 14.585000
181  2 -0.5412  5.174890  2.291930  2.424400
182  2 -0.5068  5.016460  2.339210 14.711700
183  2 -0.5175  5.050650 13.844900  2.292680
184  2 -0.5384  5.037300 13.922600 14.636300
185  2 -0.5228  9.494900  2.336190  2.346090
186  2 -0.5203  9.340180  2.225580 14.704900
187  2 -0.5470  9.426930 13.824300  2.360510
188  2 -0.5156  9.540760 13.911100 14.593600
189  2 -0.5060 13.497300  2.281400  2.269510
190  2 -0.5141 13.574400  2.193460 14.619100
191  2 -0.5455 13.681600 13.709200  2.408170
192  2 -0.5041 13.703000 13.984500 14.609600
193  2 -0.5042  0.916620 10.907200  4.556790
194  2 -0.4960  0.882101 10.792300 16.928400
195  2 -0.5178  0.876611 22.483900  4.650610
196  2 -0.5110  0.741278 22.543800 16.827700
197  2 -0.4921  5.156020 10.964900  4.633000
198  2 -0.5073  5.040410 10.907600 16.926300
199  2 -0.5238  5.049080 22.528600  4.672730
200  2 -0.5073  5.066990 22.520900 16.949700
201  2 -0.5159  9.397960 10.895700  4.702020
202  2 -0.5425  9.340730 10.947900 16.822300
203  2 -0.5449  9.227360 22.579800  4.626630
204  2 -0.4919  9.283960 22.555100 16.994500
205  2 -0.4955 13.488600 10.902500  4.803840
206  2 -0.5220 13.550700 10.891400 16.905900
207  2 -0.5077 13.532800 22.498800  4.557090
208  2 -0.4965 13.533000 22.450000 16.988700
209  2 -0.4844  3.068660  0.733442  7.636280
210  2 -0.4718  2.815800  0.716669 19.572000
211  2 -0.5146  2.879100 12.423200  7.560030
212  2 -0.5129  3.080010 12.254800 19.826700
213  2 -0.5027  7.184970  0.849132  7.594020
214  2 -0.5052  7.100770  0.684301 19.811300
215  2 -0.5157  7.328910 12.278800  7.620790
216  2 -0.4777  7.141890 12.326100 19.866800
217  2 -0.4940 11.382900  0.685920  7.446520
218  2 -0.4952 11.372700  0.612666 19.773300
219  2 -0.4990 11.484400 12.196700  7.684380
220  2 -0.5073 11.382400 12.385900 19.687000
221  2 -0.4984 15.735700  0.828884  7.603750
222  2 -0.4932 15.745200  0.722719 19.704500
223  2 -0.5071 15.771800 12.319200  7.515120
224  2 -0.5178 15.663800 12.382900 19.732900
225  2 -0.5092  2.984520  5.091060  1.436100
226  2 -0.5126  2.835000  5.113930 13.618800
227  2 -0.5174  3.045160 16.652100  1.508980
228  2 -0.5288  2.847190 16.669500 13.671400
229  2 -0.4995  7.233250  5.013510  1.458520
230  2 -0.5180  7.195870  4.964740 13.707900
231  2 -0.4951  7.345840 16.601700  1.479450
232  2 -0.5096  7.199080 16.750600 13.777000
233  2 -0.4920 11.447100  5.263370  1.352710
234  2 -0.4921 11.427400  5.073410 13.684300
235  2 -0.5018 11.501400 16.732300  1.562560
236  2 -0.5020 11.440100 16.938000 13.746900
237  2 -0.5508 15.681600  5.148210  1.489760
238  2 -0.4717 15.739100  5.060700 13.715200
239  2 -0.5417 15.723100 16.646300  1.451970
240  2 -0.5002 15.667200 16.741900 13.632900
241  2 -0.4868  0.916889  6.578790 10.822400
242  2 -0.5201  0.876288  6.482880 23.168900
243  2 -0.4717  0.836070 18.034000 10.698700
244  2 -0.5086  0.852478 18.075200 23.080600
245  2 -0.5004  5.089980  6.568570 10.874800
246  2 -0.5397  4.963510  6.498580 23.109700
247  2 -0.5055  5.149970 18.247600 10.922900
248  2 -0.5047  5.151430 18.031200 23.005100
249  2 -0.4951  9.354700  6.394560 10.823600
250  2 -0.5046  9.311630  6.533580 23.035400
251  2 -0.4820  9.274090 18.019500 10.758300
252  2 -0.5210  9.250630 17.834300 23.103100
253  2 -0.4893 13.658300  6.408580 10.745300
254  2 -0.5508 13.488300  6.541030 23.006100
255  2 -0.5105 13.597800 18.244900 10.757600
256  2 -0.4823 13.616200 18.034800 23.095500
257  2 -0.6340  0.924390 10.072700  0.892077
258  2 -0.6357  0.879460 10.038000 13.230800
259  2 -0.6382  0.896780 21.862500  1.078830
260  2 -0.6388  0.829639 21.640400 13.180000
261  2 -0.6271  5.138570 10.123300  0.898845
262  2 -0.6195  5.033990 10.102800 13.243200
263  2 -0.5812  5.203070 21.723800  1.073670
264  2 -0.6693  5.138600 21.781400 13.223300
265  2 -0.6475  9.451690 10.091600  0.962332
266  2 -0.6109  9.346170 10.235200 13.099400
267  2 -0.6415  9.250310 21.694700  1.017070
268  2 -0.6583  9.234410 21.616100 13.265700
269  2 -0.6187 13.699100 10.105700  0.907083
270  2 -0.6461 13.509800  9.842510 13.077400
271  2 -0.6449 13.497100 21.534500  0.889082
272  2 -0.6445 13.506600 21.641200 13.182500
273  2 -0.6348  2.930670  1.531200 11.416600
274  2 -0.6079  3.003760  1.500810 23.604800
275  2 -0.6386  2.858500 13.226500 11.270700
276  2 -0.6348  3.074880 13.241200 23.530300
277  2 -0.6353  7.324020  1.495670 11.437400
278  2 -0.6593  7.307070  1.466650 23.764400
279  2 -0.5985  7.175040 13.146200 11.221800
280  2 -0.6348  7.261600 12.939000 23.577500
281  2 -0.6382 11.461400  1.566860 11.365000
282  2 -0.6246 11.409900  1.565200 23.570900
283  2 -0.6161 11.461700 13.373900 11.261300
284  2 -0.6665 11.384800 13.289800 23.552300
285  2 -0.6820 15.580400  1.719220 11.323100
286  2 -0.6481 15.698700  1.658650 23.533300
287  2 -0.6439 15.689900 13.037100 11.187400
288  2 -0.6382 15.716500 13.067900 23.624500
289  2 -0.6424  2.837370  4.343560  4.979120
290  2 -0.6531  2.968130  4.152210 17.522200
291  2 -0.6384  2.929680 15.941800  5.089660
292  2 -0.6455  2.851190 15.822100 17.512400
293  2 -0.6636  7.236580  4.285570  5.128040
294  2 -0.6583  7.289340  4.232400 17.583300
295  2 -0.6460  7.408420 15.890700  5.100970
296  2 -0.6162  7.092600 15.925300 17.408100
297  2 -0.6150 11.467600  4.168730  4.996450
298  2 -0.6416 11.409700  4.380350 17.440800
299  2 -0.6425 11.461900 15.844400  5.218340
300  2 -0.5956 11.541500 15.809100 17.328100
301  2 -0.6290 15.742800  4.214410  5.111970
302  2 -0.6231 15.727700  4.344430 17.485500
303  2 -0.6545 15.836900 15.694600  5.161530
304  2 -0.6440 15.664000 15.794000 17.384600
305  2 -0.6498  0.888848  7.412360  6.958140
306  2 -0.6228  0.910379  7.173160 19.350600
307  2 -0.6401  0.812062 19.047800  6.932690
308  2 -0.6625  0.765187 18.950200 19.307600
309  2 -0.6297  5.129120  7.497110  7.014570
310  2 -0.6277  5.160880  7.305810 19.362600
311  2 -0.6211  5.057910 18.994000  7.062570
312  2 -0.6202  5.111640 19.071800 19.298600
313  2 -0.6693  9.434890  7.412350  6.928040
314  2 -0.6198  9.196870  7.262990 19.352900
315  2 -0.6134  9.326140 18.999100  7.104920
316  2 -0.6531  9.324160 19.006900 19.336100
317  2 -0.6512 13.541900  7.400290  7.020030
318  2 -0.5938 13.581000  7.658930 19.341400
319  2 -0.6224 13.603200 18.878800  6.931810
320  2 -0.6169 13.478700 18.827600 19.396600

