Generated by pymatgen.io.lammps.data.LammpsData

360  atoms

  2  atom types

0.000000 16.871067  xlo xhi
0.000000 22.058404  ylo yhi
0.000000 29.928687  zlo zhi

Masses

1  208.9804
2   78.9600

Atoms

1    1  0.7509  2.173320 13.403900 21.335800
2    1  0.7450  4.325480 16.705800 21.347500
3    1  0.7909  2.389950  5.737490 22.017100
4    1  0.7789  4.732140  9.313850 21.397300
5    1  0.7870  6.301700 13.341600 21.648800
6    1  0.7608  8.409480 16.969400 21.316100
7    1  0.8389  2.250890 20.359700 21.336500
8    1  0.7511  4.441130  1.938880 21.497600
9    1  0.7570  6.867970  5.702490 21.577700
10   1  0.7353  8.479080  9.762870 21.343800
11   1  0.6788 10.707000 13.266000 21.721200
12   1  0.7824 12.998500 16.871300 21.408300
13   1  0.7702  6.481820 20.554800 21.762100
14   1  0.7177  8.709880  2.256300 21.628100
15   1  0.6708 10.935400  5.963360 21.254200
16   1  0.7215 12.773300  9.550970 21.372300
17   1  0.8291 14.907400 13.093000 21.418300
18   1  0.8069  0.165588 17.077800 21.364800
19   1  0.7981 11.028500 20.586500 21.677300
20   1  0.7246 12.909600  2.200520 21.711200
21   1  0.7724 15.071900  6.067260 21.722500
22   1  0.7430  0.221723  9.528300 21.437200
23   1  0.7701 14.878200 20.585200 21.918900
24   1  0.8049  0.183030  1.782620 21.328500
25   1  0.7455  2.429670 13.206700 27.884600
26   1  0.7841  4.644530 16.732800 28.139100
27   1  0.7172  2.516240  5.621750 28.283500
28   1  0.8110  4.416970  9.627390 28.289400
29   1  0.8238  6.791130 13.349000 28.058500
30   1  0.8153  8.690650 17.145000 27.629100
31   1  0.7519  2.545330 20.903400 28.551200
32   1  0.7169  4.511950  2.091630 28.226800
33   1  0.7535  6.685240  5.637270 28.653100
34   1  0.8044  8.626390  9.305550 28.254800
35   1  0.7290 10.988500 13.011900 28.018000
36   1  0.7271 13.042300 16.399200 27.899800
37   1  0.7306  6.749050 20.850500 28.271300
38   1  0.7310  8.756820  2.285770 28.082500
39   1  0.8147 10.771700  5.723640 28.315400
40   1  0.7578 12.904100  9.493530 28.441300
41   1  0.7226 15.008800 13.354100 28.303500
42   1  0.6852  0.645105 17.046700 28.462900
43   1  0.7146 10.641100 20.712900 28.166400
44   1  0.7540 12.973700  2.255140 28.189400
45   1  0.7372 15.153800  5.923370 28.343400
46   1  0.7961  0.170019  9.630180 28.067700
47   1  0.6786 15.135600 20.371600 28.027600
48   1  0.7939  0.482588  2.194120 28.440700
49   1  0.6787  2.647520 15.872700  1.975590
50   1  0.8099  4.639450 19.253400  1.768960
51   1  0.8033  2.267100  8.621020  1.729250
52   1  0.6903  4.482460 11.828000  1.717590
53   1  0.7542  6.595430 15.746000  2.050940
54   1  0.7727  8.717210 19.106700  1.474590
55   1  0.7919  2.613690  0.912640  1.849380
56   1  0.7404  4.417640  4.727300  1.989790
57   1  0.7370  6.778330  8.331310  1.977440
58   1  0.7320  8.402550 12.006900  1.621530
59   1  0.7967 10.814400 15.510800  1.834880
60   1  0.7707 12.851100 19.203200  1.695530
61   1  0.8375  6.372100  1.154660  2.069120
62   1  0.7792  8.701600  4.295020  2.026360
63   1  0.8170 10.747600  7.994060  1.761150
64   1  0.7787 12.759100 12.044100  1.723210
65   1  0.7262 14.994700 15.305800  2.008140
66   1  0.7277  0.238715 19.288500  1.787040
67   1  0.8101 10.735500  1.065240  2.016060
68   1  0.8095 13.012000  4.825010  2.014430
69   1  0.8033 15.075800  8.459860  1.649860
70   1  0.7727 -0.132561 11.843900  2.008680
71   1  0.8099 15.320800  1.159880  1.939170
72   1  0.7755 17.157200  4.844830  1.815600
73   1  0.7621  2.301520 15.365300  8.167390
74   1  0.7717  4.214830 19.276300  8.235490
75   1  0.8049  2.308230  8.183820  8.242480
76   1  0.8059  4.604490 11.939500  8.184270
77   1  0.7969  6.826900 15.487900  7.972170
78   1  0.7754  8.742100 19.346500  8.214920
79   1  0.7690  2.484730  0.727254  8.073990
80   1  0.7800  4.324170  4.584730  8.098810
81   1  0.8030  6.393850  8.222260  8.198380
82   1  0.7835  8.727640 11.839600  8.020300
83   1  0.8375 10.842400 15.555300  8.135180
84   1  0.7473 13.043600 19.221000  8.177060
85   1  0.7307  6.443150  0.804348  8.072720
86   1  0.7884  8.695050  4.322830  8.257770
87   1  0.7564 10.416400  8.128260  8.082400
88   1  0.8131 13.134400 11.613600  8.272530
89   1  0.7277 14.620300 15.310700  8.242110
90   1  0.7777  0.281210 19.198400  8.035570
91   1  0.7431 11.041100  0.670698  7.736920
92   1  0.8133 12.700500  4.310720  8.216820
93   1  0.7751 14.935800  8.066620  7.907460
94   1  0.8133  0.225265 11.685000  7.985140
95   1  0.7663 15.082700  0.966424  7.819560
96   1  0.7902  0.361200  4.714390  8.180370
97   1  0.7827  0.338893 14.203900 11.501400
98   1  0.7747  2.123980 18.254100 11.355100
99   1  0.7681 -0.166703  6.870420 11.428500
100  1  0.8379  2.181530 10.703300 11.397800
101  1  0.7829  4.523390 14.338000 11.411800
102  1  0.8028  6.745650 18.156000 11.571500
103  1  0.7323  0.312967 22.068700 11.626800
104  1  0.7885  2.245930  3.786540 11.693100
105  1  0.8105  4.447440  7.429240 11.729300
106  1  0.8054  6.724150 10.848300 11.569500
107  1  0.7827  8.982620 14.276400 11.634300
108  1  0.8053 10.800000 18.491600 11.921800
109  1  0.7892  4.241540 21.792400 11.315100
110  1  0.7071  6.670480  3.156880 11.313600
111  1  0.7252  8.620250  7.226330 11.838600
112  1  0.7641 10.667000 10.666900 11.883100
113  1  0.7502 12.846700 14.281900 11.679200
114  1  0.7375 14.757800 17.912400 11.391800
115  1  0.7286  8.817750 21.674200 11.605000
116  1  0.7878 10.809700  3.231380 11.579900
117  1  0.7700 12.511100  6.924190 11.402900
118  1  0.7950 14.972100 10.580300 11.852300
119  1  0.7584 13.373700 -0.431524 11.330900
120  1  0.8152 14.814900  3.517260 11.794300
121  1  0.7898  0.102500 14.241800 17.922000
122  1  0.7747  2.477470 18.296800 18.032100
123  1  0.7610  0.161563  6.979650 18.158000
124  1  0.7237  2.213760 10.608900 18.278700
125  1  0.7528  4.005150 14.378900 18.174100
126  1  0.8084  6.281270 18.268800 18.009800
127  1  0.7633  0.172447 21.653900 17.789800
128  1  0.7946  2.147600  3.393170 18.151500
129  1  0.7846  4.290630  7.079520 18.242500
130  1  0.7889  6.284590 11.083900 17.873000
131  1  0.8003  8.641680 14.663100 17.930000
132  1  0.8378 10.679400 18.580100 17.694000
133  1  0.7644  4.466210 21.941600 17.993700
134  1  0.7736  6.435560  3.190780 18.459500
135  1  0.7872  8.968780  7.017580 18.099800
136  1  0.6916 10.650000 10.998500 18.182000
137  1  0.7809 12.890900 14.446300 18.002100
138  1  0.7742 15.059400 17.770800 18.100200
139  1  0.7487  8.508100 21.863900 18.099100
140  1  0.7421 11.007700  3.717410 18.098900
141  1  0.7659 12.992700  7.299040 18.400000
142  1  0.7367 14.605700 10.864300 18.350900
143  1  0.8030 12.682700 21.841600 18.161700
144  1  0.7983 14.750600  3.333750 17.982400
145  2 -0.8382  0.499058 14.350100 29.989200
146  2 -0.9089  2.661350 18.550800 29.977200
147  2 -0.8681  0.242211  7.429240 29.967600
148  2 -0.8455  2.173950 10.651000  0.032445
149  2 -0.8489  4.861310 14.377800 29.589100
150  2 -0.8531  6.561490 18.077500 29.929800
151  2 -0.8617 17.247100 -0.164908  0.185845
152  2 -0.9097  2.347950  3.198030 29.955000
153  2 -0.8375  4.557640  7.230940  0.176326
154  2 -0.8812  6.406330 10.728900 -0.312005
155  2 -0.7756  8.621480 14.745500 29.779900
156  2 -0.8114 10.772000 17.891500 30.004400
157  2 -0.8980  4.677250 21.931200 30.337700
158  2 -0.9113  6.522610  3.358870 30.206800
159  2 -0.8943  8.946100  6.940420 29.944600
160  2 -0.8519 10.689500 10.499400 30.133900
161  2 -0.9267 12.770400 14.238000 30.002100
162  2 -0.8443 14.799900 17.920300 30.067200
163  2 -0.8433  8.760730 22.016400 30.024900
164  2 -0.8362 10.905400  3.433900  0.133369
165  2 -0.8730 12.966800  6.760830 30.036500
166  2 -0.8988 14.995400 10.737700  0.014133
167  2 -0.7762 12.928700  0.174981  0.123484
168  2 -0.8453 15.317700  3.505330 30.067300
169  2 -0.3083  2.350020 16.089000 26.353000
170  2 -0.2659  4.743280 19.264600 26.337900
171  2 -0.3668  2.640280  8.314290 26.626000
172  2 -0.3075  4.782380 12.241000 26.215700
173  2 -0.3376  6.707440 15.885200 26.180400
174  2 -0.4202  8.801160 19.609500 26.495400
175  2 -0.3349  2.098650  1.258380 26.471900
176  2 -0.3481  4.436560  4.805140 26.559600
177  2 -0.2766  6.672910  7.838310 26.627400
178  2 -0.4077  8.822350 11.934000 26.544400
179  2 -0.3395 10.901600 15.524000 26.093700
180  2 -0.3251 12.763900 19.230900 26.142400
181  2 -0.3635  6.875260  0.852803 26.259900
182  2 -0.3417  8.718290  4.516730 26.469600
183  2 -0.3576 10.651500  7.973360 26.806800
184  2 -0.3332 13.212700 12.155000 26.342000
185  2 -0.2951 15.483600 15.393300 26.283000
186  2 -0.3119  0.760192 19.714000 26.478000
187  2 -0.3065 10.863400  0.848206 26.106400
188  2 -0.3079 13.329800  4.501740 26.317200
189  2 -0.3696 14.696000  8.565590 26.606000
190  2 -0.2800  0.100662 12.275500 26.135100
191  2 -0.2605 15.359800  1.128780 26.194300
192  2 -0.2484  0.330593  4.252280 26.064000
193  2 -0.2866  0.199341 15.041200 23.169900
194  2 -0.3397  2.165630 18.140400 23.024600
195  2 -0.2834  0.456201  7.543550 23.885100
196  2 -0.2610  2.351240 10.716600 23.537800
197  2 -0.3905  3.977530 14.448700 23.211800
198  2 -0.3521  6.733620 18.260800 23.293000
199  2 -0.3327 17.379400 21.557300 23.202700
200  2 -0.3276  1.873820  3.060680 23.185400
201  2 -0.3667  4.660550  7.195480 23.144200
202  2 -0.3448  6.269080 10.843200 23.236400
203  2 -0.3490  8.194490 14.530600 23.462500
204  2 -0.3478 10.547000 18.322800 23.165200
205  2 -0.3149  4.171120 21.808200 23.424700
206  2 -0.3024  6.100430  3.634830 23.611700
207  2 -0.3360  8.768370  7.165530 23.110500
208  2 -0.2185 11.088400 10.459100 23.911100
209  2 -0.3268 13.112300 14.522800 23.336800
210  2 -0.4121 14.786700 17.915400 23.138500
211  2 -0.2892  8.846990 21.883900 23.540300
212  2 -0.2831 10.562400  3.706870 23.692000
213  2 -0.2816 12.758700  7.151180 23.492700
214  2 -0.2975 15.014200 10.759200 23.341200
215  2 -0.3578 13.096300 22.046800 23.679900
216  2 -0.3679 15.085000  3.541740 23.092700
217  2 -0.8777  2.401380 12.808000  9.665140
218  2 -0.7933  4.706010 16.752200  9.741520
219  2 -0.8730  2.434010  6.025820 10.068400
220  2 -0.8607  4.349510  9.622020  9.972800
221  2 -0.8984  6.635040 12.855900  9.848590
222  2 -0.7983  8.884540 16.652900  9.799200
223  2 -0.9461  2.195150 20.628400  9.824960
224  2 -0.8843  4.244590  2.072880  9.855100
225  2 -0.8187  6.189550  5.932110  9.869970
226  2 -0.9079  8.695310  9.605000  9.924410
227  2 -0.8545 10.937000 13.336700  9.862560
228  2 -0.8614 12.535300 16.931800 10.110600
229  2 -0.8705  6.309670 20.534700  9.981830
230  2 -0.8757  8.922930  2.002250  9.541650
231  2 -0.9098 10.703300  5.692610  9.869890
232  2 -0.8616 13.013800  9.532770  9.910310
233  2 -0.8793 15.085800 12.808300  9.952260
234  2 -0.8610  0.057214 16.609600  9.817930
235  2 -0.8983 10.689200 20.330900  9.859800
236  2 -0.8533 12.903400  2.208780  9.914130
237  2 -0.8730 14.895200  5.520570  9.731340
238  2 -0.8714  0.298019  9.380030  9.916190
239  2 -0.9055 15.113200 20.541500  9.498990
240  2 -0.8069  0.199004  2.576200  9.783570
241  2 -0.3183  0.042755 14.219200  6.326950
242  2 -0.3888  2.277160 17.753900  6.553620
243  2 -0.3777 17.012400  7.277790  6.433710
244  2 -0.3577  2.145270 10.719300  6.461150
245  2 -0.3470  4.597840 14.067600  6.229930
246  2 -0.3793  6.489560 18.025400  6.771930
247  2 -0.3289  0.346522 21.886300  6.175310
248  2 -0.3278  2.186230  3.243020  6.296740
249  2 -0.3823  4.467820  7.211870  6.647780
250  2 -0.3210  6.810730 10.650100  6.220370
251  2 -0.3631  8.870740 14.492800  6.337170
252  2 -0.3354 10.891300 17.903000  6.428780
253  2 -0.3524  4.430280 -0.239153  6.215570
254  2 -0.3453  6.601060  3.476700  6.433650
255  2 -0.3475  8.061880  6.860390  6.559350
256  2 -0.3331 10.997600 10.501300  6.506920
257  2 -0.3724 12.980500 14.217900  6.514570
258  2 -0.3184 14.910200 18.160300  6.274580
259  2 -0.3056  8.455320 -0.236787  6.103410
260  2 -0.3646 10.913000  3.420550  6.360050
261  2 -0.3211 12.589100  6.774770  6.360000
262  2 -0.3378 14.798400 10.609900  6.308010
263  2 -0.3479 13.006600 -0.375161  5.931110
264  2 -0.3323 15.070600  3.417190  6.324670
265  2 -0.3157  2.332520 13.214800  3.669360
266  2 -0.3525  4.611580 17.036900  3.852060
267  2 -0.3188  2.247210  6.155700  3.678590
268  2 -0.2553  4.524550  9.401470  4.017250
269  2 -0.3913  6.925560 13.086300  3.565740
270  2 -0.3397  8.664610 16.997200  3.584640
271  2 -0.2796  2.375170 20.335800  3.844660
272  2 -0.3617  4.469140  2.304440  3.793340
273  2 -0.3276  6.455070  6.065970  3.733290
274  2 -0.3590  8.649360  9.521380  3.484070
275  2 -0.3132 10.746600 13.067300  3.572830
276  2 -0.2879 12.736500 16.615500  3.765450
277  2 -0.3492  6.452460 20.517200  3.358960
278  2 -0.3822  8.770070  2.291400  3.741770
279  2 -0.3940 10.821000  5.902100  3.505430
280  2 -0.3413 13.055200  9.580730  3.366620
281  2 -0.3381 14.661000 12.930400  3.801180
282  2 -0.3061 17.019500 16.697000  3.789020
283  2 -0.3450 10.792100 20.407500  3.462250
284  2 -0.3437 12.795600  2.378640  3.664780
285  2 -0.3502 15.469800  6.120850  3.542100
286  2 -0.3799  0.173511  9.463000  3.459580
287  2 -0.3345 15.137800 20.464300  3.486390
288  2 -0.3557 17.209800  2.392510  3.520340
289  2 -0.9278  2.233470 15.797300 19.588700
290  2 -0.9295  4.112550 19.250200 19.884000
291  2 -0.8934  2.360580  8.048130 19.957600
292  2 -0.8784  4.491170 11.949000 19.895200
293  2 -0.8613  6.627660 15.802200 19.518800
294  2 -0.8112  8.410950 19.372600 19.424200
295  2 -0.8820  2.251170  0.898306 19.530200
296  2 -0.8351  4.422420  4.517550 19.945100
297  2 -0.8200  6.536930  8.292090 19.472600
298  2 -0.8613  8.164380 12.242500 19.835900
299  2 -0.7842 10.888600 16.017200 19.676100
300  2 -0.8336 12.508200 19.558600 19.738500
301  2 -0.9446  6.336350  0.723853 19.871200
302  2 -0.9298  8.504880  4.452740 19.642500
303  2 -0.9461 10.507800  8.490600 19.913700
304  2 -0.9727 12.892400 12.115300 19.976500
305  2 -0.9015 14.948300 15.592700 19.687300
306  2 -0.8708  0.104555 19.497700 19.914400
307  2 -0.8772 10.647400  0.933739 20.110000
308  2 -0.9255 13.135000  4.735920 19.641000
309  2 -0.9580 14.975500  8.227750 20.064600
310  2 -0.9158 16.918800 12.077300 19.960300
311  2 -0.8571 14.947500  0.741865 19.852200
312  2 -0.8091  0.282119  4.553630 19.765500
313  2 -0.4120  2.305890 12.847600 16.628500
314  2 -0.2444  4.647820 17.233300 15.972700
315  2 -0.3504  2.283050  5.812040 16.404900
316  2 -0.2674  4.379570  9.491190 15.995700
317  2 -0.3131  6.058320 13.199100 16.158800
318  2 -0.3449  8.330060 16.929700 16.395500
319  2 -0.3403  2.792920 20.474700 16.069500
320  2 -0.3456  4.651030  2.374980 16.377300
321  2 -0.2239  6.274280  5.868490 16.171200
322  2 -0.2985  8.844290  9.350900 16.212700
323  2 -0.3800 10.892300 13.597300 16.289600
324  2 -0.3346 12.684700 16.923800 16.287800
325  2 -0.3159  6.450820 20.399300 16.085900
326  2 -0.2589  9.069130  2.293910 16.099200
327  2 -0.3320 11.138200  6.100680 16.444000
328  2 -0.3198 12.805500  9.228950 16.418000
329  2 -0.3630 14.824100 12.812000 16.333200
330  2 -0.3781  0.565262 16.816800 16.463500
331  2 -0.3776 10.938800 21.036100 16.263100
332  2 -0.3343 12.732200  2.580590 16.248000
333  2 -0.2741 14.649100  6.036710 16.343400
334  2 -0.3036  0.318959  9.838200 16.383800
335  2 -0.3660 14.533700 20.134300 16.624700
336  2 -0.3636 -0.117203  2.366160 16.203100
337  2 -0.4474  2.347500 15.749600 12.526500
338  2 -0.3245  4.192650 19.300500 13.010400
339  2 -0.3071  1.958770  8.555410 13.326300
340  2 -0.2892  4.289890 11.929300 13.322100
341  2 -0.2945  6.461280 15.648300 13.230500
342  2 -0.4123  8.559150 19.136900 13.387200
343  2 -0.3556  2.259870  1.188240 13.396200
344  2 -0.2692  4.365770  4.742220 13.458200
345  2 -0.3817  6.690610  8.502130 13.428000
346  2 -0.4603  8.627320 11.998600 13.207600
347  2 -0.2761 10.412600 15.804000 13.739000
348  2 -0.4054 13.293700 19.502700 13.153600
349  2 -0.2885  6.706500  0.805746 13.479100
350  2 -0.3550  8.358270  4.339980 13.227900
351  2 -0.3548 11.046100  8.068920 13.391200
352  2 -0.3346 12.636700 12.043600 13.605500
353  2 -0.3290 14.715500 15.295900 13.491700
354  2 -0.2723  0.044142 19.191900 13.531400
355  2 -0.3222 11.121400  0.963780 13.277800
356  2 -0.3148 12.651900  4.709350 13.361500
357  2 -0.3230 14.696900  8.066290 13.251300
358  2 -0.3289  0.441606 12.084100 13.342300
359  2 -0.3883 15.016800  0.955864 13.272700
360  2 -0.3938 -0.096993  5.010940 13.328500

