Generated by pymatgen.io.lammps.data.LammpsData

216  atoms

  2  atom types

0.000000 18.204489  xlo xhi
0.000000 18.086281  ylo yhi
0.000000 18.233787  zlo zhi

Masses

1  208.9804
2   78.9600

Atoms

1    1  0.7930  0.025398 18.023900 18.109200
2    1  0.7749  0.037634 18.113900  6.188330
3    1  0.8178  0.050000 18.033100 12.161200
4    1  0.7965  0.068191  6.074250 18.327400
5    1  0.7665  0.148621  6.070090  6.111950
6    1  0.7727  0.034478  5.925250 12.411900
7    1  0.7986 -0.002375 12.125700 -0.017465
8    1  0.7697  0.049973 12.073000  6.261200
9    1  0.7809 -0.037674 12.094900 12.147200
10   1  0.8147  6.094250 18.169400 18.265300
11   1  0.7839  6.061180 18.149600  5.995290
12   1  0.7521  6.026620 18.125600 12.262200
13   1  0.7763  6.001390  6.203930  0.047869
14   1  0.8042  6.077680  6.157260  6.140720
15   1  0.8239  6.206780  6.152100 12.048100
16   1  0.8044  6.177150 12.105000  0.003948
17   1  0.7990  6.109290 11.968500  6.239300
18   1  0.8143  6.138650 12.073700 12.166500
19   1  0.7747 12.253300 18.168700 -0.046008
20   1  0.7860 12.156100 18.116200  6.137540
21   1  0.8005 12.147900 18.289900 12.232800
22   1  0.7801 12.143100  6.284680  0.092784
23   1  0.8037 12.099400  6.229900  6.118060
24   1  0.8063 12.099500  6.155370 12.188900
25   1  0.7935 11.997200 12.040200  0.091765
26   1  0.8140 11.927700 12.164400  6.195820
27   1  0.8041 12.169600 12.076600 12.045500
28   1  0.7767 -0.135337  3.017790  3.048680
29   1  0.7996  0.067879  3.023860  9.148360
30   1  0.7965  0.113134  2.979260 15.216800
31   1  0.8027  0.047510  9.097830  2.938360
32   1  0.7838  0.044768  8.982140  9.268030
33   1  0.8008  0.052914  9.077640 15.188300
34   1  0.7811  0.069924 15.105300  3.126130
35   1  0.7732 -0.020308 15.071900  9.259920
36   1  0.7862  0.046575 15.142800 15.097900
37   1  0.8136  6.222730  3.073130  2.935360
38   1  0.8060  6.071690  3.107530  9.168680
39   1  0.7756  6.056870  3.229320 14.942300
40   1  0.7991  6.118550  9.088030  3.025720
41   1  0.8102  6.001020  9.023130  8.928210
42   1  0.7974  6.135900  9.184060 15.162500
43   1  0.7674  6.163980 14.920500  3.050650
44   1  0.7836  6.135140 15.106100  9.192230
45   1  0.8176  6.164640 15.105300 15.120800
46   1  0.7921 12.012100  3.146360  2.986220
47   1  0.7987 12.056700  3.203270  9.321370
48   1  0.7862 12.041500  3.113020 15.030500
49   1  0.7871 12.101900  9.000780  3.074200
50   1  0.7897 11.998600  9.090360  9.176600
51   1  0.8097 12.099300  9.183160 15.070300
52   1  0.7884 12.146900 15.232700  2.933380
53   1  0.7842 12.068900 15.272900  9.172490
54   1  0.8107 12.047100 15.127400 15.015900
55   1  0.8176  3.148650 18.228600  3.063560
56   1  0.7544  3.155620 18.296100  9.171280
57   1  0.7922  3.093710 18.203200 15.209200
58   1  0.7999  3.190100  6.081900  3.065960
59   1  0.7877  3.221770  6.065650  9.060630
60   1  0.7791  3.166930  6.084810 15.357000
61   1  0.8176  3.064180 12.219500  2.932610
62   1  0.8103  3.124510 12.041800  9.024870
63   1  0.7994  3.114950 12.151400 15.222800
64   1  0.8092  9.062390 18.116200  3.189360
65   1  0.7982  9.075800 18.126500  9.059650
66   1  0.7927  9.093620  0.140842 15.172400
67   1  0.8094  8.973930  5.856430  3.131680
68   1  0.8245  9.183260  6.194300  9.182970
69   1  0.7986  9.121900  6.274320 15.124500
70   1  0.7747  9.117150 11.965500  3.052250
71   1  0.8010  9.109310 12.113500  9.134880
72   1  0.7907  9.095630 12.198400 15.191100
73   1  0.7542 15.114400 18.099000  3.033450
74   1  0.8340 15.257000 18.350300  9.124540
75   1  0.7772 15.177100 18.188200 15.288400
76   1  0.7810 15.157300  5.959020  3.060040
77   1  0.7787 15.309900  6.137820  9.207930
78   1  0.7716 15.256300  6.169890 15.221000
79   1  0.8003 15.061900 12.045100  2.999120
80   1  0.7619 15.329800 12.201800  9.046630
81   1  0.7984 15.115600 12.142800 15.012000
82   1  0.7831  3.260210  3.174260  0.149384
83   1  0.8120  3.006440  3.194860  5.850620
84   1  0.7961  3.106800  3.159380 12.146200
85   1  0.8337  3.048910  9.333760 -0.016546
86   1  0.7885  3.079080  9.202430  5.964960
87   1  0.8006  3.221300  9.126370 12.043900
88   1  0.8016  3.044880 15.165800 -0.113808
89   1  0.7801  3.108430 15.301500  6.156810
90   1  0.8112  3.219250 15.045200 12.145900
91   1  0.8057  9.054680  3.066220  0.027286
92   1  0.8006  8.957910  2.981550  6.031120
93   1  0.8113  8.903490  3.069720 12.110500
94   1  0.8186  9.133230  9.133340 -0.122879
95   1  0.8046  9.019320  9.043040  5.985470
96   1  0.7798  9.035630  9.169240 12.210900
97   1  0.8060  9.149920 15.266400 -0.046935
98   1  0.7992  9.012220 15.203800  6.002630
99   1  0.7785  9.014070 15.224500 12.112900
100  1  0.7701 15.276400  3.191570  0.105092
101  1  0.7607 15.036500  2.981940  6.050620
102  1  0.7674 15.163800  2.991470 12.124500
103  1  0.7821 15.161500  9.127520  0.027820
104  1  0.8013 15.065000  9.054530  6.172210
105  1  0.7837 15.276700  9.166030 12.197800
106  1  0.7858 15.291100 15.136900 -0.101022
107  1  0.7746 15.186100 15.093600  6.185130
108  1  0.7853 15.029200 15.159300 12.173400
109  2 -0.7683  3.071360  0.075230  0.027268
110  2 -0.7985  3.045670 18.198300  5.950000
111  2 -0.7964  3.114410 18.201200 12.143200
112  2 -0.8000  3.102350  6.341420  0.149524
113  2 -0.8212  3.224680  6.229900  5.973080
114  2 -0.7666  3.239960  5.992330 12.102700
115  2 -0.8058  3.092870 12.198300 -0.005081
116  2 -0.7858  3.085060 12.110700  6.038800
117  2 -0.7626  3.081480 12.107600 12.146000
118  2 -0.7705  9.126150  0.086573  0.002861
119  2 -0.8209  9.038940 18.100400  6.060690
120  2 -0.8082  9.191480 18.137100 12.295600
121  2 -0.7579  9.159610  6.149320  0.118558
122  2 -0.7876  9.052400  6.043010  6.153090
123  2 -0.8018  9.109850  6.076010 12.085100
124  2 -0.8095  9.080800 12.014900  0.057362
125  2 -0.8052  8.960190 12.023800  5.985440
126  2 -0.8032  9.029950 12.098300 12.005000
127  2 -0.8126 15.227200  0.153708 -0.046208
128  2 -0.7996 15.154400 -0.012786  6.255710
129  2 -0.7908 15.128100 18.125200 12.125300
130  2 -0.8094 15.223400  6.258540  0.006009
131  2 -0.7702 15.128900  6.100820  6.098360
132  2 -0.7916 15.246000  6.118860 12.249500
133  2 -0.7643 15.083000 12.198000  0.045993
134  2 -0.7711 15.044300 11.968700  6.200680
135  2 -0.8254 15.090700 12.147700 12.064400
136  2 -0.8051  3.206530  3.091460  2.986390
137  2 -0.7922  3.080360  3.177620  8.938220
138  2 -0.8044  3.107520  3.086610 15.197100
139  2 -0.7741  2.975530  9.260670  2.831830
140  2 -0.8098  3.144150  9.127540  9.053160
141  2 -0.7709  3.040290  9.144320 15.217300
142  2 -0.7684  3.125240 15.108400  3.072930
143  2 -0.7792  3.152530 15.087200  9.273040
144  2 -0.7925  3.055750 15.163000 15.189300
145  2 -0.8424  9.072510  3.051780  3.077550
146  2 -0.7730  8.972350  3.111580  9.137080
147  2 -0.7727  9.024640  3.215760 15.048700
148  2 -0.7855  9.140570  8.960350  3.010930
149  2 -0.7915  8.971410  9.120090  9.027510
150  2 -0.8285  9.141700  9.261560 15.215300
151  2 -0.8026  9.167420 15.239200  2.940220
152  2 -0.8032  9.083030 15.172400  8.924120
153  2 -0.8023  9.076850 15.103200 15.217600
154  2 -0.8322 15.104800  3.080000  3.014870
155  2 -0.8009 15.148600  3.055750  9.215930
156  2 -0.7726 15.312600  3.106710 15.256000
157  2 -0.7781 15.140700  9.083350  3.065740
158  2 -0.7800 15.213800  9.072030  9.186330
159  2 -0.7964 15.194500  9.167790 15.197400
160  2 -0.7752 15.127900 15.073900  2.984360
161  2 -0.7843 15.183500 15.353100  9.132320
162  2 -0.7970 15.148700 15.042400 15.200300
163  2 -0.7622 18.265200 18.139600  3.001270
164  2 -0.7914 18.179100  0.082693  9.220040
165  2 -0.8094 -0.035574 18.165400 15.118800
166  2 -0.7839 18.238800  6.122570  3.007140
167  2 -0.7744 18.314200  5.997990  9.321530
168  2 -0.7966  0.176616  6.029070 15.368300
169  2 -0.7623 18.227600 12.098700  3.041190
170  2 -0.8218 18.338400 12.078100  9.170630
171  2 -0.7802  0.009828 12.057200 15.232300
172  2 -0.7973  6.108650  0.078544  2.957620
173  2 -0.7973  6.282040  0.115010  9.107770
174  2 -0.7913  6.032290 -0.003467 15.307100
175  2 -0.8194  6.111120  6.077410  3.024480
176  2 -0.8155  6.246330  6.150330  9.136590
177  2 -0.8040  6.150770  6.183720 15.105200
178  2 -0.7962  6.036590 11.998700  3.002480
179  2 -0.7970  6.030640 12.001600  9.233210
180  2 -0.8120  6.057330 12.144500 15.179600
181  2 -0.7981 12.068900 18.099300  2.989780
182  2 -0.7747 12.150800 18.321100  9.046120
183  2 -0.8006 12.077400 18.173400 15.101100
184  2 -0.7999 12.138500  6.092220  3.152860
185  2 -0.8053 12.079300  6.166350  9.142130
186  2 -0.7748 12.001400  6.144450 15.070900
187  2 -0.7776 12.173400 12.092600  3.139140
188  2 -0.7896 12.034200 12.117800  9.129610
189  2 -0.7782 12.123100 12.099000 14.965200
190  2 -0.7645 18.340700  2.994180  0.092143
191  2 -0.7980 18.291500  3.128830  6.083160
192  2 -0.7825 18.283200  2.932430 12.130200
193  2 -0.7815 18.307800  9.173390 -0.071431
194  2 -0.7637  0.088772  9.061390  6.085060
195  2 -0.7896 18.266600  9.078240 12.149200
196  2 -0.8087 18.255300 15.043600 -0.033909
197  2 -0.7960 18.219200 15.151400  6.106140
198  2 -0.7974 18.264300 15.108000 12.217300
199  2 -0.8145  6.177320  3.056290  0.105427
200  2 -0.7795  5.942240  3.071530  5.984960
201  2 -0.8404  6.021440  3.225490 12.100300
202  2 -0.7956  6.138650  9.166110 -0.118490
203  2 -0.8399  6.139850  9.103220  5.981130
204  2 -0.8090  6.045120  9.128920 12.149000
205  2 -0.7707  6.077060 15.107900 -0.162488
206  2 -0.7922  6.071180 15.103100  6.105170
207  2 -0.8363  6.085630 15.113600 12.196900
208  2 -0.7551 11.995700  3.180410 -0.044406
209  2 -0.7499 12.013000  3.108320  6.042800
210  2 -0.8164 11.968600  3.226810 12.156200
211  2 -0.8124 12.055900  9.192940 -0.042632
212  2 -0.7905 12.062200  9.130600  6.155470
213  2 -0.8058 12.081300  9.148810 12.220700
214  2 -0.7661 12.040900 15.089100 -0.151513
215  2 -0.7699 12.066400 15.074500  6.148100
216  2 -0.8037 12.054500 15.298600 12.183400

