Generated by pymatgen.io.lammps.data.LammpsData

320  atoms

  2  atom types

0.000000 24.637781  xlo xhi
0.000000 17.058433  ylo yhi
0.000000 27.370788  zlo zhi

Masses

1  208.9804
2   78.9600

Atoms

1    1  0.6633 -1.518880 18.184300  0.342290
2    1  0.6652 21.523300  1.360960 14.427800
3    1  0.6251 -1.511820 10.214400  0.776003
4    1  0.6806 -2.174080 10.099900 14.115800
5    1  0.6645 10.728200 18.208300  0.651235
6    1  0.6875  9.499310  1.191710 14.010200
7    1  0.7786 10.521600 10.202800  0.669959
8    1  0.7276  9.433270  9.957080 14.293800
9    1  0.7421  3.715650  6.140920 10.164600
10   1  0.7357  4.353230  5.314150 24.034200
11   1  0.8064  3.511900 14.206900  9.661790
12   1  0.6520  3.976870 13.953600 24.326300
13   1  0.7959 15.756500  5.677280  9.907930
14   1  0.7181 16.765600  5.500350 23.438500
15   1  0.7844 15.922100 13.879300  9.802770
16   1  0.6712 16.567000 14.069600 23.932500
17   1  0.5838  3.647110  6.206760  5.749320
18   1  0.6645  4.120140  5.317480 19.080800
19   1  0.6633  3.889230 14.434500  5.265140
20   1  0.7158  4.307270 13.935000 19.213000
21   1  0.7235 16.322900  5.351920  5.764380
22   1  0.7115 16.917600  5.574580 19.238800
23   1  0.7150 16.280400 13.931700  5.847660
24   1  0.7177 17.031900 13.943100 19.645300
25   1  0.7249 21.781600 18.589600  9.359810
26   1  0.7126 -1.479160 17.690600 23.859500
27   1  0.6975 22.319700  9.618430 10.328500
28   1  0.7592 -1.227050  9.467990 23.831800
29   1  0.7778  9.740540  0.963851  9.721820
30   1  0.8419 10.565800  1.090050 23.623900
31   1  0.7934  9.144890 10.205000  9.939470
32   1  0.6438 10.214200  9.609340 22.731800
33   1  0.7625 -2.019680  5.721270  0.728648
34   1  0.6787 21.947500  5.260710 14.643500
35   1  0.7455 -2.047510 13.828000  1.322600
36   1  0.7079 21.673000 14.441800 14.208400
37   1  0.6974 10.893400  4.940070  0.424823
38   1  0.5247  9.525190  5.139990 13.658300
39   1  0.7216 10.674600 14.328400  0.195745
40   1  0.6645 10.085300 13.808700 13.897500
41   1  0.7471 22.041500  5.617770 10.428600
42   1  0.8024 -2.077290  5.450410 23.359400
43   1  0.7205 -2.897140 13.838200  9.618810
44   1  0.7925 -1.239440 13.915600 23.247300
45   1  0.7346  9.825500  5.965540  9.329200
46   1  0.7735 10.888200  5.592650 23.526800
47   1  0.7392  9.723980 14.065300  9.798300
48   1  0.7506 10.156800 14.036900 23.602900
49   1  0.6135  3.760190 18.376800  5.261570
50   1  0.7174  4.345940 18.161900 19.467700
51   1  0.6318  3.519510  9.534100  5.709610
52   1  0.7849  4.494440  9.719620 19.132600
53   1  0.7215 15.864500  1.286730  6.244310
54   1  0.7369 16.652800 17.887700 19.279000
55   1  0.6779 16.372700  9.297650  5.786300
56   1  0.7284 16.994800 10.011500 19.440600
57   1  0.7221  3.809240  1.262400  9.485400
58   1  0.6986  4.185150 18.037100 24.260300
59   1  0.7736  3.293590 10.010900 10.591800
60   1  0.7464  4.260720  9.777170 23.488400
61   1  0.7804 15.671100  1.541780  9.878010
62   1  0.7765 16.737600 18.436100 23.132000
63   1  0.7751 15.790700  9.836630  9.948910
64   1  0.8156 16.994000  9.653390 24.064200
65   1  0.6864  1.354550  7.733190 26.323900
66   1  0.6784  0.629021  7.314840 12.168100
67   1  0.7135  1.194750 15.324300 25.752600
68   1  0.8024  0.029425 16.352700 11.187600
69   1  0.9146 13.739400  7.096060 26.047200
70   1  0.7686 12.382700  7.895810 11.697800
71   1  0.7650 13.847000 16.093300 25.538100
72   1  0.7458 13.001800 16.591100 12.011800
73   1  0.7410  7.828410  7.398760 25.582000
74   1  0.7449  6.158800  7.882370 12.245900
75   1  0.7940  7.589170 15.751800 25.492000
76   1  0.7876  6.658970 16.132400 12.088700
77   1  0.7342 19.517800  7.324520 25.858500
78   1  0.7994 18.880200  7.402650 12.529500
79   1  0.8261 20.059700 16.148500 26.150600
80   1  0.8213 19.193900 16.446200 11.937700
81   1  0.7370  1.207230  3.241700 26.131600
82   1  0.7508  0.200635  3.590780 12.181000
83   1  0.6987  1.401100 11.510900 25.743300
84   1  0.6703  0.475644 12.544700 12.312500
85   1  0.8694 13.790500  3.293730 25.859200
86   1  0.6488 12.600900  3.691610 12.063700
87   1  0.7930 13.607000 12.032000 25.606200
88   1  0.6925 12.485700 11.876600 12.143300
89   1  0.7410  7.925140  3.569060 25.688800
90   1  0.6262  6.596940  3.532700 12.114000
91   1  0.8488  7.390710 11.893000 25.858800
92   1  0.7783  6.610460 12.045400 12.009200
93   1  0.7594 20.227000  3.300360 25.574900
94   1  0.8170 18.727400  3.215340 11.820000
95   1  0.7330 20.196500 11.824100 26.570400
96   1  0.8556 18.838700 11.966200 11.978000
97   1  0.7950  0.212068  7.607630  7.590520
98   1  0.7873  1.452740  7.505830 21.451500
99   1  0.6974  0.549518 16.025000  6.679700
100  1  0.8357  1.927020 15.784700 21.247900
101  1  0.7902 12.795600  8.056150  7.383480
102  1  0.7406 14.223800  7.958630 20.912300
103  1  0.7559 12.863900 16.163800  6.670570
104  1  0.7153 13.880500 16.154000 21.764500
105  1  0.6959  6.241950  8.436740  7.685600
106  1  0.7227  7.231080  7.560870 21.695300
107  1  0.7621  6.714950 15.910400  8.002080
108  1  0.7213  7.862470 15.801900 21.386000
109  1  0.7841 18.588500  7.821870  8.413790
110  1  0.7824 19.788800  8.131480 21.677100
111  1  0.7654 18.924500 15.970900  7.776110
112  1  0.7884 19.988900 15.992700 21.417900
113  1  0.7922  0.937250  3.833710  7.180730
114  1  0.7046  1.258680  2.976200 21.628700
115  1  0.8326  0.477841 11.786200  7.932570
116  1  0.8179  1.595150 11.993800 21.257000
117  1  0.8124 12.808100  3.961200  8.093540
118  1  0.8548 13.760400  3.258760 22.305300
119  1  0.6830 13.130300 12.216800  6.984550
120  1  0.6493 13.772700 11.809500 20.850600
121  1  0.6840  6.904530  3.544690  7.884680
122  1  0.8044  7.478400  3.259200 21.562800
123  1  0.7569  6.146660 12.062300  8.207280
124  1  0.6383  7.178940 11.306500 21.020700
125  1  0.7618 18.722100  3.348200  7.965350
126  1  0.7233 19.274200  3.539250 21.624700
127  1  0.7013 19.037000 12.169000  7.576930
128  1  0.7386 19.606700 11.879200 21.734300
129  2 -0.7171  6.516260  6.254740  9.748050
130  2 -0.8280  7.703590  5.345740 23.600200
131  2 -0.8491  6.522740 14.131000 10.082900
132  2 -0.8650  7.609270 13.912700 23.668400
133  2 -0.7544 18.967100  5.653930 10.063100
134  2 -0.8446 19.791000  5.706330 23.494300
135  2 -0.8329 18.849100 13.931600  9.787490
136  2 -0.6416 20.113200 13.834400 24.429800
137  2 -0.7400  0.230542  5.348890  9.726030
138  2 -0.6723  1.179240  5.332680 23.811200
139  2 -0.7356  0.475205 14.008900  9.745400
140  2 -0.9021  1.484290 13.860600 23.231800
141  2 -0.8253 12.776000  5.947780  9.766920
142  2 -0.7772 13.902400  5.213450 23.924500
143  2 -0.6866 12.997600 14.278800  9.059660
144  2 -0.8079 13.222500 13.647100 23.538700
145  2 -0.1059 16.305600  3.878290  2.422490
146  2 -0.0856 -0.025038  2.997630 17.150000
147  2 -0.0806 17.512200 11.516200  2.056570
148  2 -0.0550 -1.735380 13.259800 18.276900
149  2 -0.0988 10.004600  3.847930  3.999920
150  2  0.0622 10.858900  4.802720 18.939800
151  2 -0.0345  5.126020  8.331120  1.795110
152  2 -0.1272 11.496500 13.307700 17.172300
153  2  0.0790 21.424200  7.579710  4.279600
154  2 -0.1218 -2.430410  8.309060 16.921600
155  2 -0.4378 20.036300 14.315800  1.063580
156  2 -0.0315  3.053120 15.485600 15.966200
157  2 -0.0752  9.224800  9.317310  3.642880
158  2 -0.1124 15.646900  7.794390 16.313300
159  2 -0.0506  8.699860 16.235300  3.340980
160  2  0.0108 10.676100 18.246100 17.870000
161  2 -0.7655  6.757340 18.275000  9.915570
162  2 -0.6939  7.450100 18.110500 23.900500
163  2 -0.8103  6.303420 10.015800 10.220200
164  2 -0.7818  7.484730  9.893360 23.734200
165  2 -0.8549 18.834400  1.570340  9.792300
166  2 -0.6792 19.754800 18.219600 23.544700
167  2 -0.7434 18.539300  9.480870 10.663800
168  2 -0.7772 19.514200  9.961940 23.887000
169  2 -0.6303  0.583639 18.056500  9.031290
170  2 -0.7926  1.339990 17.731800 23.306700
171  2 -0.7976  0.376010  9.969830  9.953300
172  2 -0.8310  1.347890  9.617230 23.812200
173  2 -0.7416 12.788500  1.246150  9.852920
174  2 -0.8168 13.413300 18.299800 24.016600
175  2 -0.7076 12.848600  9.831740  9.687420
176  2 -0.6142 14.129200  9.085300 23.781500
177  2 -0.0799  7.737970  3.942090  3.807150
178  2 -0.0473 -1.174410 18.265600 17.634700
179  2 -0.0807  4.693120 10.515500  2.483470
180  2 -0.0294 -1.389550 15.316800 17.682900
181  2  0.0245 17.980400  2.320370  2.593500
182  2 -0.0081 12.133300  4.254230 17.445700
183  2  0.0009 16.758900 13.594000  1.913510
184  2 -0.0311 13.231600 12.393700 16.641800
185  2 -0.0768  8.248330  7.397700  2.987740
186  2 -0.2648  5.030910  7.313580 16.918300
187  2 -0.1221 10.074200 14.438000  3.525560
188  2 -0.0669  3.301740 17.968300 16.065500
189  2 -0.0393 21.737900  5.536180  3.955970
190  2  0.0088 12.599200  7.323120 16.438200
191  2 -0.2406 15.513000 15.950800  3.949790
192  2  0.0042 11.754600 16.377700 17.397800
193  2 -0.1836  4.504750  4.189360  2.923190
194  2 -0.3574  1.146170  5.760520 18.995400
195  2 -0.4063  0.676215 14.018700  4.642740
196  2 -0.4815  1.709130 13.988200 19.157700
197  2 -0.4072 12.994200  5.268070  5.674400
198  2 -0.4025 14.031000  5.421110 19.947100
199  2 -0.3524 13.102300 13.882600  4.332650
200  2 -0.4869 14.535500 14.545400 19.241700
201  2 -0.3978  0.222991  6.008780  5.445930
202  2 -0.3778  7.249450  5.641270 19.297600
203  2 -0.3562  6.784870 13.920500  5.742910
204  2 -0.3379  7.217620 14.983200 18.335900
205  2 -0.4882 18.839600  5.689460  6.223750
206  2 -0.3839 20.380700  6.025610 19.733100
207  2 -0.3545 19.342500 14.069000  5.115570
208  2 -0.4469 19.472000 13.886800 18.832200
209  2 -0.8564 22.068600  7.619400 12.420800
210  2 -0.8232 -1.601140  7.263900 25.638100
211  2 -0.8319 21.778700 16.298400 11.714200
212  2 -0.7906 -1.633530 15.660700 25.752900
213  2 -0.7835  9.109920  7.789750 11.661500
214  2 -0.7534 11.318100  7.766980 25.593500
215  2 -0.8524  9.576400 15.989500 11.882900
216  2 -0.8665 10.627700 16.074100 25.329300
217  2 -0.8624 21.757700  3.641540 12.247200
218  2 -0.8379 -1.487320  3.267660 25.809800
219  2 -0.8439 21.578800 12.156400 11.865600
220  2 -0.8156 -1.353100 12.046100 26.005000
221  2 -0.8804  9.677530  3.418430 11.626300
222  2 -0.8854 11.014400  3.385870 25.586100
223  2 -0.9588  9.672730 11.781600 11.989600
224  2 -0.7878 10.183600 12.161200 25.711000
225  2 -0.4616  0.466065 15.824000  1.058380
226  2 -0.4201  0.033785 18.212900 13.421600
227  2 -0.3384 -0.663395  7.785930  2.469410
228  2 -0.2664  0.660531  8.742740 14.955100
229  2 -0.3227 13.879100  0.882820  0.848654
230  2 -0.4338 12.094500  1.999960 14.630000
231  2 -0.3771 13.473600 10.070600  0.426647
232  2 -0.4924 12.400600  9.590960 13.817900
233  2 -0.4367  7.920530 18.099400  0.141261
234  2 -0.4380  7.115380  1.660510 15.080600
235  2 -0.4190  7.934170 10.056600  0.293437
236  2 -0.4079  6.623610  9.680340 14.707400
237  2 -0.5118 20.343700 18.335900  0.201768
238  2 -0.5243 18.853700  0.954175 13.917800
239  2 -0.3921 19.923400  9.624880  1.069850
240  2 -0.3859 19.681200 10.534300 14.531400
241  2 -0.9051  3.453060  7.786410  8.071470
242  2 -0.8243  4.425780  7.815340 21.604400
243  2 -0.9275  3.606090 15.826000  7.785300
244  2 -0.8139  4.550710 16.004300 21.407900
245  2 -0.8864 15.799600  7.454250  7.853330
246  2 -0.8738 17.129900  7.738610 21.063300
247  2 -0.8298 16.007300 16.032000  7.846590
248  2 -0.8802 17.318900 16.036200 21.615600
249  2 -0.7743  3.607770  3.901530  7.862910
250  2 -0.8056  4.509400  3.484580 21.818700
251  2 -0.8094  3.192870 11.776900  8.379130
252  2 -0.9043  4.252640 11.520000 21.054400
253  2 -0.9311 15.654300  3.495110  8.046400
254  2 -0.9006 16.549500  3.257120 21.389800
255  2 -0.9333 16.022500 11.901800  7.701420
256  2 -0.8988 16.804800 11.701000 21.693500
257  2 -0.4208  7.559510  5.583980  0.283301
258  2 -0.1598 10.486900  7.280830 16.576700
259  2 -0.3915  7.470010 14.251800  0.507439
260  2 -0.4217  7.291950 14.278400 14.558900
261  2 -0.4633 19.984100  5.327700  0.578943
262  2 -0.4411 18.528600  5.244420 14.305000
263  2 -0.1239 21.589600 10.900200  3.725390
264  2 -0.3771 18.900800 14.231800 14.266200
265  2 -0.3909  1.421850  5.314540  0.869854
266  2 -0.3950  0.578123  5.348520 14.399300
267  2 -0.3545  1.351250 12.405200  1.271010
268  2 -0.4455 -0.082858 14.710700 14.046500
269  2 -0.5684 13.382200  5.231860  0.539317
270  2 -0.1982 15.904900  3.015430 17.136200
271  2 -0.4681 13.439500 13.955500  0.373998
272  2 -0.3752 13.351400 14.925700 14.039200
273  2 -0.3935 22.130900  3.951950  7.774680
274  2 -0.4696 22.556500  3.413050 21.793300
275  2 -0.4760 22.226100 11.566100  7.737350
276  2 -0.4785 -1.647230 11.503700 21.889200
277  2 -0.4742 10.036400  3.490230  7.589150
278  2 -0.4956 10.651000  3.463160 22.017600
279  2 -0.4108  9.158930 12.072900  7.669420
280  2 -0.3830 10.704200 10.798100 20.077200
281  2 -0.3711 22.153400  7.734560  7.791450
282  2 -0.4106 -1.026440  8.073790 21.431000
283  2 -0.5101 21.742200 16.385200  7.457120
284  2 -0.4704 -1.699980 16.046400 21.451400
285  2 -0.4770  9.537600  8.464390  7.714760
286  2 -0.4307 10.709900  7.212840 21.209800
287  2 -0.5097  9.477350 15.853300  7.844730
288  2 -0.4935 11.099100 16.627400 21.547100
289  2 -0.3651  7.033050 18.296300  5.595760
290  2 -0.4281  7.339840  1.291340 19.523800
291  2 -0.4437  6.130320 10.378000  5.531800
292  2 -0.4605  7.161810  9.738710 18.832700
293  2 -0.4579 18.641800 17.804500  5.880600
294  2 -0.4348 19.676800 17.869200 19.070000
295  2 -0.4443 19.001100  9.647540  5.955050
296  2 -0.4241 19.627700 10.097300 19.203000
297  2 -0.4979  1.082160  1.842600  4.819960
298  2 -0.4302  1.766740 17.614800 19.278000
299  2 -0.3545  0.452088  9.929190  5.216420
300  2 -0.3333  1.216990  9.999180 19.309600
301  2 -0.3752 13.014600  1.298810  4.993350
302  2 -0.3370 13.630200 18.145100 19.804300
303  2 -0.4255 12.954000  9.184960  4.902540
304  2 -0.4086 14.191900  9.598230 18.619800
305  2 -0.5255  3.627770  3.796870 11.679200
306  2 -0.4658  3.909170  3.325520 26.124800
307  2 -0.5174  3.767250 12.317600 12.216400
308  2 -0.4763  4.206240 11.214200 26.196100
309  2 -0.5251 15.825100  3.519010 11.949700
310  2 -0.4968 16.598500  3.261740 25.329700
311  2 -0.4445 15.931500 11.675100 12.079900
312  2 -0.4301 16.687600 11.481000 25.967900
313  2 -0.5110  3.241280  8.176410 12.888800
314  2 -0.4149  4.912940  7.699580 25.833000
315  2 -0.3815  3.743040 16.482000 12.035000
316  2 -0.5041  4.056120 15.892800 26.411800
317  2 -0.4628 15.334800  7.656660 11.890500
318  2 -0.5042 16.672600  7.436170 25.916100
319  2 -0.4579 15.957800 16.122900 11.693300
320  2 -0.5500 16.661600 16.609500 25.102400

