Generated by pymatgen.io.lammps.data.LammpsData

216  atoms

  2  atom types

0.000000 18.096178  xlo xhi
0.000000 18.140645  ylo yhi
0.000000 18.233787  zlo zhi

Masses

1  208.9804
2   78.9600

Atoms

1    1  0.6917  0.451600  0.034044  0.449128
2    1  0.7915 -0.002531 17.620400  6.779340
3    1  0.5978 18.049700 17.069000 12.437100
4    1  0.8440 17.494400  6.287150  0.751735
5    1  0.6825  0.457827  6.218020  6.889240
6    1  0.8289  0.065937  5.986980 12.870700
7    1  0.8731  0.405277 11.829600  0.630952
8    1  0.8801  0.012140 12.138100  6.298310
9    1  0.7120 -0.548627 11.434000 13.379400
10   1  0.7406  6.112730 17.920600  0.460429
11   1  0.8431  5.884130 18.226000  7.110820
12   1  0.7857  6.020310 17.836000 12.954200
13   1  0.7731  5.929050  5.989950  0.651506
14   1  0.7608  6.196610  5.799610  7.057620
15   1  0.7514  5.872300  6.049790 13.128300
16   1  0.7706  6.052830 11.948900  0.646617
17   1  0.7646  5.755750 12.327600  6.535790
18   1  0.7603  5.765870 11.966000 12.558200
19   1  0.6425 11.899400  0.311579  0.207246
20   1  0.8016 12.173500 18.608900  6.719680
21   1  0.7488 11.860300  0.262135 12.527600
22   1  0.7663 11.812900  6.226460  0.835406
23   1  0.7293 12.635900  6.625780  6.121000
24   1  0.8028 12.638900  5.601290 12.733700
25   1  0.8911 12.329800 11.952700  0.514083
26   1  0.7559 11.913700 12.383700  6.521090
27   1  0.6995 11.664800 11.372900 11.963300
28   1  0.8147 17.704900  2.668890  3.623450
29   1  0.6740  0.119417  2.588060  9.566150
30   1  0.8823  0.711283  3.509540 16.002200
31   1  0.7669 -0.276660  9.511150  3.507350
32   1  0.7838 -0.056824  9.749570  8.718980
33   1  0.8021 -0.136052  8.901590 15.584200
34   1  0.8266 -0.430855 15.548900  2.966120
35   1  0.8249 17.718600 14.997700  9.020940
36   1  0.6337 17.764700 15.155400 15.149000
37   1  0.6906  6.844860  2.676770  3.303560
38   1  0.8586  5.875560  3.462830  9.840050
39   1  0.8167  5.873880  3.701130 15.983500
40   1  0.8720  6.063490  9.802720  3.413200
41   1  0.8055  5.543190  8.931870  9.389840
42   1  0.7941  5.660990  8.930760 15.118800
43   1  0.6861  6.033910 15.636600  3.626890
44   1  0.6979  5.455820 14.903700  9.898270
45   1  0.7773  5.891690 15.241800 16.149700
46   1  0.8406 12.193500  3.084760  3.827280
47   1  0.6857 11.754000  2.953500  9.495970
48   1  0.6793 12.472200  3.100850 15.721400
49   1  0.8575 12.332600  9.116640  3.682290
50   1  0.7010 12.614200  9.064520  9.138970
51   1  0.7292 12.696000  8.992480 15.417100
52   1  0.7640 12.234000 15.580800  3.557250
53   1  0.8125 12.067500 14.830700 10.090900
54   1  0.7316 11.555700 15.024700 15.592000
55   1  0.7971  3.111440 18.391500  3.464190
56   1  0.8670  3.012280 17.309700  9.929430
57   1  0.7900  3.068180  0.111038 15.951000
58   1  0.8169  2.651120  6.333710  4.128510
59   1  0.6921  2.838220  6.157980 10.021800
60   1  0.7761  2.513200  6.869700 16.466800
61   1  0.8351  2.843790 12.040900  3.558600
62   1  0.7567  3.270380 11.836700  9.616580
63   1  0.8130  3.058960 12.437400 15.530800
64   1  0.8065  9.522420  0.309252  3.570590
65   1  0.7001  9.621760 18.375800  9.541550
66   1  0.6284  9.821270  0.885227 16.552900
67   1  0.6665  8.138790  5.449340  4.432300
68   1  0.8328  8.841150  6.136200 10.009400
69   1  0.7896  8.686600  6.163720 15.843700
70   1  0.7711  9.252930 12.380400  2.897580
71   1  0.7644  9.141410 12.124200  9.649650
72   1  0.7010  8.861040 12.056600 15.462000
73   1  0.7574 14.823200  0.188860  3.115510
74   1  0.7098 15.670600 -0.088934  9.461560
75   1  0.7939 15.354200 -0.361133 15.379600
76   1  0.7844 15.060200  5.710850  3.716840
77   1  0.6969 15.009500  6.166560  9.373000
78   1  0.7666 15.124300  6.370020 15.961700
79   1  0.8195 15.138900 11.867300  3.507850
80   1  0.7965 15.479500 12.601800  9.451170
81   1  0.7840 15.392700 11.652200 16.033800
82   1  0.7669  3.221390  3.610280  0.529620
83   1  0.7880  2.967110  2.923070  6.889660
84   1  0.8431  3.620690  2.754050 13.070700
85   1  0.7673  2.787750  9.476010  0.425250
86   1  0.7853  2.948370  9.873520  6.722920
87   1  0.8095  3.059840  8.845270 12.400000
88   1  0.6849  3.619420 15.526400  0.735995
89   1  0.7394  3.029200 15.272600  6.254360
90   1  0.7386  3.237390 14.955800 12.845800
91   1  0.6612  9.372680  3.467150  0.646292
92   1  0.6354  9.256660  3.201920  6.673520
93   1  0.7023  9.510800  2.440170 13.169600
94   1  0.7817  9.551650  8.759630  0.386453
95   1  0.8754  8.995620  9.196210  6.665640
96   1  0.8144  8.897720  8.859160 13.020600
97   1  0.7521  9.349840 14.609300  0.375840
98   1  0.8387  9.630040 15.383300  6.612010
99   1  0.7177  8.478900 15.042100 12.769100
100  1  0.7150 15.605400  2.914840  0.211510
101  1  0.8565 15.435700  3.178360  6.916520
102  1  0.8540 15.053400  3.257020 12.895400
103  1  0.9605 15.153700  9.201120  0.922738
104  1  0.6658 15.635800  8.443650  6.316990
105  1  0.7191 14.831100  8.949700 12.461100
106  1  0.7964 15.329200 15.317200  0.415276
107  1  0.7800 14.999200 15.083100  6.235250
108  1  0.6556 15.418600 14.668400 12.732400
109  2 -0.8419  3.100990  0.483094  0.806692
110  2 -0.7511  3.129410 -0.237831  7.003860
111  2 -0.7468  3.093410 17.943600 12.750100
112  2 -0.7277  2.969980  6.599820  0.899818
113  2 -0.7826  3.161350  5.769450  7.282550
114  2 -0.7367  2.925070  5.864920 13.680100
115  2 -0.7861  2.927010 12.307700  0.735013
116  2 -0.8813  2.614250 12.484800  6.164200
117  2 -0.7036  2.982580 11.787000 12.823600
118  2 -0.8049  9.013040 18.232300  0.781596
119  2 -0.7869  9.334760  0.166973  6.214230
120  2 -0.7516  8.867440 -0.287634 12.154900
121  2 -0.7800  8.376920  6.555600  1.230250
122  2 -0.7758  9.297210  6.179020  6.784730
123  2 -0.6654  9.244080  6.330690 13.019900
124  2 -0.7746  9.197050 11.545800  0.257681
125  2 -0.6236  8.738690 12.266100  6.564210
126  2 -0.8351  8.787670 11.565400 12.263000
127  2 -0.8058 15.501000 18.214200 -0.075683
128  2 -0.6779 15.038300  0.247153  6.390260
129  2 -0.6698 14.455900 17.986900 12.756700
130  2 -0.7624 14.828000  6.391020  0.346867
131  2 -0.9134 15.615000  5.811610  6.422980
132  2 -0.8306 15.378600  6.049920 12.736500
133  2 -0.7361 15.169800 11.760800  0.590413
134  2 -0.7698 15.347300 11.931600  6.513340
135  2 -0.7708 14.918000 11.609700 12.103800
136  2 -0.6228  2.721270  3.133380  3.996810
137  2 -0.6903  3.379750  2.444190 10.316400
138  2 -0.8009  3.143560  3.228970 15.894900
139  2 -0.7214  3.194740  9.265890  3.691930
140  2 -0.8882  3.001140  9.129030  9.513720
141  2 -0.8014  2.567570  9.227200 15.557700
142  2 -0.7386  2.608320 15.066200  3.113260
143  2 -0.7513  2.523570 14.857600  9.384750
144  2 -0.8278  3.139550 15.370300 15.703400
145  2 -0.9280  9.494120  3.113430  3.569930
146  2 -0.7264  8.613380  2.908670 10.315200
147  2 -0.8470  8.944490  3.508910 15.956800
148  2 -0.6214  8.722610  9.951070  3.889270
149  2 -0.6718  8.358690  9.132680  9.205830
150  2 -0.7268  8.450290  8.992620 15.868700
151  2 -0.7265  9.181450 15.422100  3.925340
152  2 -0.7088  9.368910 15.444100  9.666960
153  2 -0.7601  8.816780 15.516400 15.818000
154  2 -0.7746 15.059900  2.818320  3.916840
155  2 -0.7107 14.668600  3.359060  9.786050
156  2 -0.6573 15.830600  2.909920 15.477800
157  2 -0.9065 15.109000  8.958260  3.635030
158  2 -0.7732 15.418800  9.263920  9.447510
159  2 -0.8830 15.592400  9.095450 16.403400
160  2 -0.8328 14.993700 15.009800  3.014540
161  2 -0.7860 14.732900 15.214300  9.605870
162  2 -0.8001 15.315200 14.778200 15.744800
163  2 -0.8126 17.994100 18.137800  3.830500
164  2 -0.9141 18.516300 17.502600  9.462400
165  2 -0.6837  0.415406  0.487008 15.612800
166  2 -0.7219 17.966100  6.013750  3.496250
167  2 -0.6990 -0.084610  5.951850 10.146300
168  2 -0.8653 17.986200  6.084300 16.084400
169  2 -0.7757  0.293864 12.247600  3.246740
170  2 -0.6478 18.430100 12.500500  9.668590
171  2 -0.8099  0.192684 11.590500 15.916400
172  2 -0.8003  5.536900  0.153350  4.021660
173  2 -0.6783  5.720810 17.574100  9.835900
174  2 -0.6639  5.903370 18.932500 15.740300
175  2 -0.6436  5.467170  6.447890  4.156470
176  2 -0.8724  6.024350  5.914100  9.751600
177  2 -0.8726  5.825690  6.372020 16.024600
178  2 -0.7667  6.426720 12.358100  3.587000
179  2 -0.8056  6.091670 11.923900  9.647580
180  2 -0.7303  5.930780 12.171800 15.867600
181  2 -0.8397 12.442300  0.194083  3.959730
182  2 -0.6819 12.877800 -0.195963  9.757270
183  2 -0.8200 12.593200  0.333451 16.006600
184  2 -0.7806 12.073700  6.283780  3.522980
185  2 -0.6945 11.413300  5.849970 10.259400
186  2 -0.7729 12.044300  6.375720 15.723500
187  2 -0.7782 12.522500 11.863800  3.419500
188  2 -0.8119 12.263600 11.975200  9.133860
189  2 -0.7177 12.420600 11.840600 16.044200
190  2 -0.7671  0.340976  3.477600  0.776628
191  2 -0.7743 18.054800  2.912470  6.786930
192  2 -0.5604  0.159695  2.794310 12.875300
193  2 -0.8250 17.926900  8.901380  0.713218
194  2 -0.9817  0.506539  9.715960  6.241480
195  2 -0.6648 18.488100  8.653320 12.143700
196  2 -0.6956 18.197900 14.926300  0.436782
197  2 -0.8354 -0.333140 14.974400  6.484220
198  2 -0.7465 18.393700 14.249100 12.365600
199  2 -0.7712  6.127910  2.664790  0.691922
200  2 -0.8158  6.048270  3.186730  7.039210
201  2 -0.7083  6.203550  3.346610 12.936800
202  2 -0.6365  5.856860  9.119210  0.458088
203  2 -0.6963  5.937760  9.795620  6.251680
204  2 -0.8535  5.817210  8.893040 12.456900
205  2 -0.8498  6.708420 14.970700  0.521850
206  2 -0.6550  6.601710 15.609600  7.178040
207  2 -0.8744  5.895340 14.805500 13.316200
208  2 -0.8062 12.508700  3.298170  0.476350
209  2 -0.7828 12.381700  3.342200  6.597610
210  2 -0.8552 12.545300  2.907470 12.667800
211  2 -0.7712 12.599600  9.024460  0.901640
212  2 -0.8390 11.954600  9.083340  6.448320
213  2 -0.8174 12.171200  8.801430 12.769300
214  2 -0.7972 11.993200 14.402000  0.595798
215  2 -0.7998 12.409200 15.385400  6.420350
216  2 -0.6990 12.072100 14.643700 12.866600

