Generated by pymatgen.io.lammps.data.LammpsData

360  atoms

  2  atom types

0.000000 16.871067  xlo xhi
0.000000 22.058404  ylo yhi
0.000000 29.928687  zlo zhi

Masses

1  208.9804
2   78.9600

Atoms

1    1  0.7410  2.450620 13.159400 22.458600
2    1  0.6492  5.012700 17.432600 22.906200
3    1  0.6776  2.453250  6.199190 22.906800
4    1  0.7348  4.182580  9.627510 22.520600
5    1  0.7309  6.136720 14.051200 22.389900
6    1  0.8124  9.070050 17.749300 22.596500
7    1  0.7220  2.604730 20.190600 22.662900
8    1  0.8082  4.911330  2.897590 22.252000
9    1  0.7069  7.035280  6.146800 22.186800
10   1  0.7824  9.213520 10.005100 22.357900
11   1  0.7480 11.206200 13.589500 22.302700
12   1  0.8168 13.033800 17.451600 22.631200
13   1  0.7749  6.764020 20.725600 22.882000
14   1  0.6696  9.442560  2.867000 22.665300
15   1  0.7697 10.881500  6.350740 22.431100
16   1  0.7875 13.438300  9.738480 22.480000
17   1  0.6996 14.933000 12.977900 22.377300
18   1  0.7300  0.028479 16.991500 22.364800
19   1  0.7936 11.356500 20.953600 22.487700
20   1  0.7968 13.145700  2.584460 22.998400
21   1  0.7607 15.241300  5.958910 21.907300
22   1  0.7116  0.399872  9.614330 22.374100
23   1  0.7890 15.572200 21.656700 22.414000
24   1  0.7638  0.896533  2.976380 22.582300
25   1  0.7705  2.558740 13.668200 28.676000
26   1  0.7469  4.724570 17.683600 28.603900
27   1  0.7911  2.505880  6.286990 28.724700
28   1  0.7563  4.402490  9.992520 29.104300
29   1  0.8196  6.170920 13.657200 28.515900
30   1  0.7843  8.933060 17.205100 28.936200
31   1  0.7024  2.681750 21.037100 29.686600
32   1  0.7885  4.629900  2.687810 28.769500
33   1  0.8298  6.571950  6.392470 29.116200
34   1  0.7264  8.287960  9.718880 29.882000
35   1  0.7399 10.998700 13.879300 29.294700
36   1  0.7544 13.176300 17.900600 29.223000
37   1  0.7411  6.802850 21.481200 28.794100
38   1  0.7530  8.843160  2.835230 28.282300
39   1  0.7375 10.947800  5.997290 28.908600
40   1  0.8007 13.261400  9.976890 29.267400
41   1  0.7482 15.122000 13.209400 28.596800
42   1  0.7374  0.086991 17.419200 29.516900
43   1  0.7299 11.006300 21.023300 29.506400
44   1  0.7915 13.448400  3.166680 29.134400
45   1  0.7256 15.500400  7.049790 29.017700
46   1  0.7569  0.692125 10.041400 29.073200
47   1  0.8199 14.942500 21.287400 29.582200
48   1  0.7927  0.383334  2.959380 29.554000
49   1  0.7129  2.560100 15.672500  1.862980
50   1  0.6967  4.645550 20.019700  2.920320
51   1  0.8498  2.534790  9.085630  3.124180
52   1  0.8578  4.238240 12.524800  2.755400
53   1  0.7689  6.780340 16.749600  2.059270
54   1  0.7562  8.533080 20.109500  1.960270
55   1  0.7636  2.686290  1.602300  2.689370
56   1  0.8197  4.589740  5.396610  2.423620
57   1  0.7044  6.895680  8.695070  3.255710
58   1  0.7816  8.799410 12.670600  2.827410
59   1  0.7745 10.456300 16.516700  2.658860
60   1  0.8224 12.717500 19.777900  2.826740
61   1  0.8152  7.045820  1.630000  1.974690
62   1  0.7464  9.349550  4.912860  2.757740
63   1  0.7573 10.962000  8.256960  2.977010
64   1  0.6947 13.180400 12.587300  2.497580
65   1  0.7645 15.556500 15.670200  2.725620
66   1  0.8266 -0.041130 19.686900  2.812740
67   1  0.7943 11.095100  1.035810  2.499630
68   1  0.7281 12.916700  5.275960  2.049810
69   1  0.8284 14.803100  8.907780  3.192080
70   1  0.7773  0.474340 12.289600  2.273770
71   1  0.8213 15.314100  1.696160  3.299760
72   1  0.7953  0.226635  5.151720  2.943410
73   1  0.8109  2.919980 15.571900  8.924350
74   1  0.7179  5.261890 19.615100  8.875060
75   1  0.6364  3.009120  8.617240  8.362140
76   1  0.6864  4.950850 12.410700  9.284280
77   1  0.7554  6.604000 15.950000  8.836430
78   1  0.7904  9.096760 19.701600  9.148300
79   1  0.8553  2.967670  0.557261  9.153430
80   1  0.8283  4.851030  5.102100  9.866720
81   1  0.7617  7.234370  8.391670  8.890620
82   1  0.7860  9.414620 12.167600  9.055980
83   1  0.6448 11.379000 15.546500  8.780500
84   1  0.6253 13.590300 18.596400  8.427440
85   1  0.8252  6.662730  1.231200  9.154960
86   1  0.7761  8.940920  4.877580  8.728170
87   1  0.7654 11.123100  8.267610  9.380790
88   1  0.8172 13.523400 11.956400  8.798320
89   1  0.6757 15.441100 15.942400  9.230940
90   1  0.7680  0.557970 19.537700  8.945210
91   1  0.8015 10.957000  1.637270  8.378510
92   1  0.7536 13.658100  5.177030  9.307340
93   1  0.8171 15.391600  8.404160  8.741250
94   1  0.7499  0.659650 11.670600  8.899620
95   1  0.7382 15.378400  1.338330  9.096340
96   1  0.6858  0.851286  4.715970  9.280130
97   1  0.7480  0.474604 14.707000 12.494100
98   1  0.7856  2.971710 18.583000 12.742800
99   1  0.8732  0.748572  7.470110 12.586400
100  1  0.7561  2.674040 10.801200 11.962700
101  1  0.7594  4.628350 14.457700 12.457200
102  1  0.7208  6.700500 18.257600 12.264700
103  1  0.7728  0.669414  0.362745 12.812300
104  1  0.7977  2.846480  3.928780 13.427400
105  1  0.7816  4.952270  6.953670 12.661300
106  1  0.8589  7.029230 11.579800 12.293900
107  1  0.7326  9.477110 15.164100 13.354500
108  1  0.8083 10.968500 18.746900 12.935000
109  1  0.7688  4.475490 -0.153002 12.405000
110  1  0.8361  5.823680  2.216680 15.476900
111  1  0.7283  9.381760  7.072960 12.499700
112  1  0.7392 10.867700 10.727600 12.458600
113  1  0.8151 13.336400 14.557500 13.113000
114  1  0.7811 15.321300 18.938900 12.786000
115  1  0.8060  9.004860  0.392815 12.653100
116  1  0.8166 11.180700  3.501360 12.616600
117  1  0.7995 13.419100  7.528190 12.980100
118  1  0.7913 15.354700 11.039800 12.916100
119  1  0.7055 13.307900  0.037383 13.267600
120  1  0.8154 15.399500  3.903510 12.232500
121  1  0.7153  0.668097 14.484200 18.730900
122  1  0.7590  2.710620 18.690400 18.962200
123  1  0.7866  0.526720  7.493000 18.679500
124  1  0.7452  2.372570 11.079800 18.959000
125  1  0.7757  5.451310 14.908900 19.201000
126  1  0.8553  6.914440 18.456900 19.477600
127  1  0.7799  0.550165 21.894200 18.401400
128  1  0.8580  2.699230  3.752320 19.018900
129  1  0.8006  4.568240  7.294510 18.501200
130  1  0.8299  6.824000 11.081400 18.445700
131  1  0.7667  9.293140 14.461400 18.296000
132  1  0.7794 11.053300 18.499600 18.524700
133  1  0.8464  5.056060  0.217291 19.759200
134  1  0.7655  6.766250  4.221590 19.061400
135  1  0.8223  8.775500  7.540020 18.794100
136  1  0.8466 11.212100 11.051000 18.581100
137  1  0.7725 12.824400 14.770300 18.613400
138  1  0.7838 15.420300 18.429700 19.384300
139  1  0.8101  9.062830  0.235202 19.199300
140  1  0.7602 10.887000  3.384460 19.807600
141  1  0.8021 12.407800  7.446160 18.632200
142  1  0.6714 15.022500 11.341700 18.950600
143  1  0.7371 13.167000  0.610020 18.753700
144  1  0.7756 15.609000  3.786710 18.713400
145  2 -0.9134  0.426475 14.258400  0.205735
146  2 -0.8393  2.285340 18.463300  0.731963
147  2 -0.7043  0.431804  7.977550  1.739470
148  2 -0.9168  2.525800 10.941400  1.045520
149  2 -0.8293  4.884570 14.614500  0.901248
150  2 -0.9250  6.684290 18.906800  0.359423
151  2 -0.8338  0.334986  0.427019  1.427460
152  2 -0.8326  2.189500  4.696030  0.714545
153  2 -0.8269  4.346410  7.549460  0.483231
154  2 -0.7871  6.772520 11.425500  1.307540
155  2 -0.8323  8.763400 15.177600  0.717769
156  2 -0.9561 10.992900 18.927400  0.985500
157  2 -0.9135  4.662030  0.501092  1.112420
158  2 -0.8307  6.275470  4.105480  0.526643
159  2 -0.8714  8.883270  7.058200  1.045330
160  2 -0.7703 11.049700 11.542300  0.461460
161  2 -0.8058 13.329400 15.317500  1.298960
162  2 -0.8884 15.070300 18.799100  1.103350
163  2 -0.9669  8.677000  0.404811  0.619980
164  2 -0.8515 10.883600  3.338470  0.438813
165  2 -0.8903 12.837000  7.813300  1.069250
166  2 -0.8880 15.349200 11.153300  0.783662
167  2 -0.8845 13.137600  0.333744  1.212520
168  2 -0.8785 15.349900  4.622760  0.627433
169  2 -0.3014  2.516500 16.321100 27.104600
170  2 -0.3451  5.247450 20.070800 26.847100
171  2 -0.2793  2.587650  8.811170 26.660900
172  2 -0.4094  4.022740 12.206400 27.137300
173  2 -0.4463  6.688550 15.834900 27.373900
174  2 -0.2605  9.545620 19.588000 27.133100
175  2 -0.3110  2.703760  1.432630 27.478000
176  2 -0.3670  4.705440  4.826400 27.161400
177  2 -0.3523  6.283090  8.562320 27.578500
178  2 -0.2801  8.022030 12.222700 27.403700
179  2 -0.3951 11.546700 16.439000 27.529900
180  2 -0.2507 13.126600 19.894500 27.044400
181  2 -0.3253  6.640530  1.398180 26.672500
182  2 -0.3360  8.213050  5.241210 26.947600
183  2 -0.3168 10.568400  8.594390 28.003900
184  2 -0.3346 13.095900 11.401000 27.095400
185  2 -0.2735 15.354600 16.002500 27.162200
186  2 -0.3318  0.283590 20.324100 27.982000
187  2 -0.2756 11.512900  1.595690 26.966700
188  2 -0.3456 13.014800  4.953860 27.248800
189  2 -0.3772 15.678900  9.032290 27.272100
190  2 -0.3075  0.772506 11.943000 27.095700
191  2 -0.3794 15.154700  1.180130 27.986400
192  2 -0.3402 -0.192858  4.523000 27.637200
193  2 -0.2601  0.548486 14.904400 24.259100
194  2 -0.4267  2.500880 17.924300 24.205700
195  2 -0.3684  0.198385  7.434830 24.274600
196  2 -0.3625  2.552350 11.078500 24.177000
197  2 -0.3458  4.638290 14.752400 24.575200
198  2 -0.3594  7.633620 18.117100 24.682300
199  2 -0.2897  1.138450  0.813582 24.103700
200  2 -0.3070  2.432630  3.910200 24.771000
201  2 -0.3014  5.312280  7.728710 24.335900
202  2 -0.2496  6.527690 11.137200 24.011800
203  2 -0.3189  8.937380 14.812500 23.928600
204  2 -0.3987 10.985400 18.755000 24.142900
205  2 -0.2352  4.094660  0.091254 24.392800
206  2 -0.3865  6.831520  3.489400 24.199100
207  2 -0.2215  8.881040  8.287230 24.431900
208  2 -0.3738 11.453500 10.623800 24.044800
209  2 -0.3547 13.156000 15.712700 24.372900
210  2 -0.1568 15.699600 18.493400 25.091300
211  2 -0.3701  8.876380 -0.169090 24.183400
212  2 -0.4278 10.876400  4.590660 24.412300
213  2 -0.2887 13.449700  7.284690 24.002500
214  2 -0.3929 15.847600 11.036600 24.123600
215  2 -0.4250 13.829000 22.728400 24.259400
216  2 -0.3215 15.585700  4.507040 24.202600
217  2 -0.9235  2.755550 13.418100 10.713000
218  2 -0.9074  4.715830 16.989300 10.377300
219  2 -0.8791  2.850590  6.439420 10.966400
220  2 -0.7492  5.653810  9.747460 11.003400
221  2 -0.8280  7.240860 13.845000 10.808100
222  2 -0.7868  9.524740 17.607800 10.980500
223  2 -0.8747  2.490930 20.739800 11.068100
224  2 -0.7291  4.502280  1.899980 10.371000
225  2 -0.7639  7.203980  5.978410 10.679000
226  2 -0.8722  9.239530 10.038300 10.540300
227  2 -0.7769 11.548600 13.175900 10.887100
228  2 -0.7130 13.709000 17.026200 11.825200
229  2 -0.8815  6.722960 20.633400 10.943000
230  2 -0.6959  9.445870  2.356520 10.662800
231  2 -0.8706 11.351300  5.937390 10.649800
232  2 -0.7695 13.665500  9.192080 10.694700
233  2 -0.7881 15.194500 13.519100 11.146200
234  2 -0.7581  0.843303 17.153000 11.011300
235  2 -0.7170 11.148300 21.016400 11.345200
236  2 -0.8004 13.237700  2.555180 11.082700
237  2 -0.8529 15.322900  6.271750 11.450600
238  2 -0.8569  0.353665  9.833120 10.611000
239  2 -0.7896 15.457200 20.852300 10.677300
240  2 -0.7707  1.236910  2.843550 11.339100
241  2 -0.3012  0.517765 14.630500  7.321660
242  2 -0.2853  3.131080 18.197600  7.086160
243  2 -0.3765  0.452645  7.242780  6.790550
244  2 -0.3462  3.001150 11.229000  6.751510
245  2 -0.2914  4.475070 14.684900  6.973980
246  2 -0.3468  7.456040 18.511500  7.173970
247  2 -0.4067  0.796077  0.459872  7.579360
248  2 -0.2027  3.065900  3.690020  7.442690
249  2 -0.4145  5.100630  6.763620  7.566220
250  2 -0.4431  6.885390 11.180100  7.751560
251  2 -0.2638  8.180640 15.082900  6.809230
252  2 -0.3304 10.916600 17.862100  7.048940
253  2 -0.3876  4.519130 21.911400  7.154480
254  2 -0.3554  6.412740  3.970280  7.892020
255  2 -0.3552  9.756090  7.215670  7.036000
256  2 -0.3708 11.530400 10.712600  7.537210
257  2 -0.4608 13.788400 14.915800  7.346070
258  2 -0.3677 16.186900 18.697800  6.927050
259  2 -0.4496  8.756110 -0.086295  7.654910
260  2 -0.3084 12.017300  4.161600  7.157110
261  2 -0.2701 13.149800  7.886260  7.217390
262  2 -0.4508 15.370600 10.760400  7.471880
263  2 -0.2833 13.146000 22.090100  7.033370
264  2 -0.4473 15.373200  3.722120  7.677410
265  2 -0.3377  2.206400 13.573400  4.182600
266  2 -0.3244  4.101670 16.693000  3.735830
267  2 -0.3070  2.763740  6.235530  4.632200
268  2 -0.4799  4.789970 10.239400  4.256310
269  2 -0.2029  6.258760 14.161000  4.255380
270  2 -0.4414  8.480390 18.105000  3.803820
271  2 -0.2760  2.322870 20.672900  4.799940
272  2 -0.3687  4.917290  2.775090  3.727520
273  2 -0.4242  7.027340  6.061090  4.267770
274  2 -0.3764  9.204570 10.188400  4.682100
275  2 -0.3986 10.598400 14.172600  4.397820
276  2 -0.3151 13.452600 17.771400  4.580740
277  2 -0.2561  7.251180 21.657400  4.469840
278  2 -0.3205  9.361010  2.120790  4.471280
279  2 -0.4620 11.527100  5.769370  4.080810
280  2 -0.3515 12.968200 10.174900  4.549450
281  2 -0.2551 15.099900 13.112200  4.748450
282  2 -0.3688  0.537186 16.830000  4.014750
283  2 -0.2786 10.581300 20.743000  4.574030
284  2 -0.3548 12.908300  2.351220  4.320110
285  2 -0.2989 14.460300  5.913110  4.405160
286  2 -0.3861  0.192152 10.126000  4.365970
287  2 -0.3856 15.002200 20.984100  4.379810
288  2 -0.4485  0.494417  2.783050  4.404880
289  2 -0.7623  2.760100 15.787900 20.466300
290  2 -0.9272  4.930640 19.685800 21.043500
291  2 -0.9019  2.477750  8.779470 20.335800
292  2 -0.7940  4.737060 12.489500 20.434800
293  2 -0.8469  7.429070 16.224800 20.897300
294  2 -0.8409  8.725650 19.824600 20.776200
295  2 -0.7728  3.039400  1.662420 21.157800
296  2 -0.8815  4.629830  5.058050 20.563600
297  2 -0.7922  7.034710  8.599030 20.762400
298  2 -0.7287  8.600280 12.534200 20.025600
299  2 -0.7762 11.367900 16.029700 20.573700
300  2 -0.8003 13.565900 19.981800 21.167000
301  2 -0.8054  7.156150  1.279990 20.928200
302  2 -0.9523  9.013180  5.511540 20.418900
303  2 -0.8076 11.334500  8.992920 20.781600
304  2 -0.8876 12.597600 12.222700 20.578800
305  2 -0.8220 14.945500 16.127600 21.012800
306  2 -0.8614  0.436800 19.839900 20.632600
307  2 -0.9329 11.356700  1.195240 21.024800
308  2 -0.8393 12.692100  4.747370 21.117200
309  2 -0.7726 14.589700  8.262030 20.287600
310  2 -0.9272  0.136787 12.135000 20.855600
311  2 -0.8263 15.740300  1.392890 20.549000
312  2 -0.8918  0.657916  5.329320 20.610200
313  2 -0.3274  2.798080 13.289400 17.212300
314  2 -0.3654  5.238460 17.286300 17.636700
315  2 -0.4612  2.754190  5.650770 17.411200
316  2 -0.2320  4.496030  9.665120 16.608600
317  2 -0.3785  6.606110 13.074700 17.058500
318  2 -0.3815  8.829120 17.534200 17.274500
319  2 -0.3674  3.318210 21.206200 17.529600
320  2 -0.6176  4.889990  2.267670 18.035000
321  2 -0.4462  6.801580  6.272410 17.235800
322  2 -0.4364  9.258330  9.855620 17.235100
323  2 -0.4723 11.038200 13.316200 16.749900
324  2 -0.3926 13.053600 17.516100 17.311300
325  2 -0.3400  6.970070 21.355200 17.613300
326  2 -0.3628  8.774180  2.727390 17.195600
327  2 -0.2560 10.425300  6.406320 16.718900
328  2 -0.3973 13.072500  9.720350 17.029100
329  2 -0.4366 14.923700 13.801700 17.015600
330  2 -0.3334  0.773352 17.400800 17.250600
331  2 -0.3803 10.453600 21.259800 17.142000
332  2 -0.4675 12.933100  3.061390 17.699100
333  2 -0.2414 15.322400  6.140970 16.858500
334  2 -0.2830  0.760569  9.840360 16.754000
335  2 -0.3984 15.240000 20.664200 17.120600
336  2 -0.3788  0.746926  2.870280 17.122500
337  2 -0.2874  2.980560 15.718900 14.561200
338  2 -0.3376  4.625880 20.293900 14.586600
339  2 -0.3427  2.504660  8.097050 14.172500
340  2 -0.4466  4.834680 11.922700 13.468100
341  2 -0.4139  7.139500 16.406200 14.245400
342  2 -0.2500  8.519390 19.675300 14.807300
343  2 -0.4548  2.683840  1.363720 14.638600
344  2 -0.4363  4.989620  5.042020 14.753600
345  2 -0.1899  7.048930  8.502770 14.626900
346  2 -0.3554  8.663740 12.133800 14.396800
347  2 -0.3969 11.645600 16.528100 14.647100
348  2 -0.3530 13.333600 19.742400 14.938100
349  2 -0.5049  6.593750  2.125640 12.429800
350  2 -0.2288  8.602750  4.822230 14.349600
351  2 -0.3868 10.835000  8.626870 14.445400
352  2 -0.3891 12.858500 12.035500 14.484000
353  2 -0.2511 15.701000 16.272500 14.688200
354  2 -0.3832  1.159480 20.122400 14.366900
355  2 -0.3983 10.558700  1.363350 14.553600
356  2 -0.2910 13.220600  5.264630 14.623500
357  2 -0.3206 15.663000  8.650260 14.463400
358  2 -0.3795  1.063600 11.255100 13.927900
359  2 -0.4607 15.751300  2.312830 14.104100
360  2 -0.3208  0.401342  5.365140 14.222800

