Generated by pymatgen.io.lammps.data.LammpsData

216  atoms

  2  atom types

0.000000 18.096178  xlo xhi
0.000000 18.140645  ylo yhi
0.000000 18.233787  zlo zhi

Masses

1  208.9804
2   78.9600

Atoms

1    1  0.7577 18.197800  0.101502 17.703300
2    1  0.7189 18.238800 17.683200  6.151470
3    1  0.7872 17.757400 18.143600 11.799500
4    1  0.6475  0.673853  5.937780 17.480400
5    1  0.7807 17.565600  5.865570  5.532840
6    1  0.7753 17.503500  6.514160 11.075200
7    1  0.7940  0.048085 11.486700 17.569700
8    1  0.6852 17.993900 12.066300  5.410260
9    1  0.8192 17.413000 12.160000 11.932500
10   1  0.8746  5.434330 17.496400 17.606700
11   1  0.9098  5.571940 18.099700  5.430780
12   1  0.7529  5.696230 17.395600 12.337600
13   1  0.7649  5.932360  5.846000 17.667900
14   1  0.8091  6.024650  5.997380  5.545720
15   1  0.6688  6.062210  5.901060 11.939300
16   1  0.8715  5.673120 12.520700 17.923800
17   1  0.7072  6.300560 12.151100  5.632010
18   1  0.8003  6.016950 11.989400 11.502500
19   1  0.7797 11.536400 18.138100 17.600500
20   1  0.6879 12.185100 17.775900  5.700710
21   1  0.7838 12.295700 17.271600 12.065000
22   1  0.7476 12.030800  6.013230 18.181000
23   1  0.9035 11.890800  5.840710  5.736890
24   1  0.7628 11.737700  6.368740 11.664700
25   1  0.6835 11.456100 12.302000 16.908700
26   1  0.7190 11.683400 11.640700  6.118510
27   1  0.8622 12.090100 11.838000 11.555600
28   1  0.7028 17.944100  2.177800  2.813700
29   1  0.7917 -0.123641  2.713450  8.727400
30   1  0.7355 17.598100  3.099740 15.106200
31   1  0.8507 17.749100  8.618380  2.792380
32   1  0.7399  0.548146  9.059460  8.124190
33   1  0.7708 17.693000  8.896020 14.967100
34   1  0.7294 17.611700 14.440900  3.005400
35   1  0.8735 17.891400 14.842500  8.918900
36   1  0.6725 18.050700 15.028400 15.104300
37   1  0.8051  5.873350  2.609700  2.726180
38   1  0.7726  5.855630  2.444250  8.634330
39   1  0.8497  5.220750  2.354590 14.850800
40   1  0.7343  6.019390  8.863160  2.581190
41   1  0.7434  6.233350  9.332840  8.497880
42   1  0.8171  5.747770  8.716410 14.614100
43   1  0.8940  6.005780 15.093600  2.878920
44   1  0.6679  5.748310 14.997000  8.664010
45   1  0.8053  5.676760 14.442100 14.906500
46   1  0.7787 11.316700  2.611390  2.879740
47   1  0.7645 11.616400  3.604080  8.419140
48   1  0.6944 11.736800  2.727070 14.784100
49   1  0.7764 11.857200  8.953160  2.902860
50   1  0.8264 11.745500  8.990830  8.425280
51   1  0.6115 11.975600  9.372070 14.737700
52   1  0.7462 11.372500 13.489200  2.880050
53   1  0.8745 12.203900 15.369300  8.161380
54   1  0.7537 11.514500 15.110300 14.922600
55   1  0.7921  2.362660 17.832300  2.725140
56   1  0.8176  2.914250 -0.107171  8.518130
57   1  0.7494  2.351050 17.355000 15.578700
58   1  0.6930  2.624360  5.705280  1.987760
59   1  0.7527  3.396280  6.188300  8.545980
60   1  0.7404  3.496090  5.709410 14.290700
61   1  0.7796  3.570630 11.409800  3.151280
62   1  0.8243  2.633740 12.050800  8.742520
63   1  0.8014  2.733140 12.257200 14.846300
64   1  0.7490  8.718760 17.400400  2.642210
65   1  0.8223  9.279110 17.817900  8.064930
66   1  0.7276  9.183830 17.874200 14.700000
67   1  0.6748  8.912180  5.691060  2.460410
68   1  0.8124  8.969590  5.521310  8.986350
69   1  0.7578  9.270090  6.041220 14.313500
70   1  0.7513  8.779060 11.591100  2.224160
71   1  0.6659  8.189020 12.188300  9.177120
72   1  0.7899  8.812020 11.779100 14.868800
73   1  0.8667 14.996300 18.204000  2.496500
74   1  0.8445 14.839800 18.185200  8.447040
75   1  0.7273 15.618600 17.813700 14.141400
76   1  0.8244 14.983900  5.289280  2.696550
77   1  0.7088 15.654600  6.488830  8.151260
78   1  0.8407 14.857800  5.884270 14.509000
79   1  0.8411 15.168500 12.015900  2.256540
80   1  0.7118 14.796700 11.726200  7.607790
81   1  0.7612 15.107500 12.105500 15.184600
82   1  0.6868  2.943500  2.888440 17.882300
83   1  0.8756  2.661810  3.365110  5.375530
84   1  0.7565  3.159610  3.232120 10.796000
85   1  0.7710  3.119310  8.617920 17.898300
86   1  0.6977  3.101920  9.125660  5.859510
87   1  0.8057  2.931380  8.850260 11.864900
88   1  0.7826  2.780110 14.489400  0.088132
89   1  0.8084  3.543430 14.757800  5.946000
90   1  0.7510  3.071470 14.722300 12.447600
91   1  0.7867  9.117940  2.123500 18.254800
92   1  0.8119  8.315870  2.522100  5.198980
93   1  0.7229  9.270660  2.401880 11.395900
94   1  0.7867  8.606390  8.047450 17.627300
95   1  0.8204  8.967880  8.732720  5.158050
96   1  0.8013  9.021820  9.113580 11.238800
97   1  0.8192  8.656050 14.694000 18.161600
98   1  0.8409  9.236120 14.870500  5.559100
99   1  0.7996  9.318350 14.743600 11.706300
100  1  0.8149 14.815200  2.536550 17.562100
101  1  0.6689 15.328000  2.232660  5.427770
102  1  0.7754 15.098500  2.621440 11.883000
103  1  0.7211 14.471300  8.868890 17.637700
104  1  0.7227 14.799300  9.010110  5.349530
105  1  0.7313 14.927000  9.199600 11.111100
106  1  0.9043 14.971100 14.471800 18.030500
107  1  0.8152 15.007200 14.504300  5.565600
108  1  0.7698 14.993000 14.818400 11.599400
109  2 -0.8717  2.822020 17.667600 -0.096215
110  2 -0.7988  2.946880 17.646100  5.718720
111  2 -0.6669  3.050800  0.351867 11.272300
112  2 -0.9381  3.366430  5.903420 17.336000
113  2 -0.6863  2.913480  5.899590  5.060120
114  2 -0.7867  2.866870  6.174690 11.256700
115  2 -0.7889  2.952650 11.707100 17.534800
116  2 -0.8446  2.781820 12.249600  6.009410
117  2 -0.7449  2.570880 12.339400 12.189200
118  2 -0.8164  8.806320 17.407700 18.019000
119  2 -0.7911  8.605390 17.826200  5.561220
120  2 -0.7204  9.308880 17.530400 11.725100
121  2 -0.6701  8.625960  4.792390 17.399400
122  2 -0.6568  8.762360  5.520360  5.740380
123  2 -0.9091  9.235850  6.041370 11.516600
124  2 -0.7564  8.344410 11.870000 17.638900
125  2 -0.8303  9.060240 11.743200  5.310280
126  2 -0.8209  9.041520 11.840800 11.810700
127  2 -0.5765 15.186400 17.349200 17.426800
128  2 -0.8219 15.156200 17.650100  5.046930
129  2 -0.8153 14.977500 17.935600 11.423300
130  2 -0.6616 15.091900  6.152440 17.467500
131  2 -0.8124 14.676400  6.068250  5.915550
132  2 -0.7103 14.831100  5.618550 11.761300
133  2 -0.8452 15.018500 12.018100 17.847800
134  2 -0.9146 14.430300 11.818200  4.761410
135  2 -0.6757 14.899600 12.075300 10.453300
136  2 -0.7914  3.096630  2.392280  2.726280
137  2 -0.7798  2.933210  2.787370  8.098000
138  2 -0.6818  2.497050  2.527770 14.861900
139  2 -0.7764  3.274770  8.743950  2.673790
140  2 -0.8182  3.165830  9.235970  8.929900
141  2 -0.7940  3.223230  8.415430 14.832900
142  2 -0.6826  3.008680 14.365400  2.813990
143  2 -0.7525  2.264050 15.426300  8.556760
144  2 -0.9680  2.964190 14.829300 15.148000
145  2 -0.9297  8.708470  2.426860  2.413250
146  2 -0.7526  9.169610  2.656070  8.162370
147  2 -0.6027  8.419270  2.503560 14.427400
148  2 -0.8341  8.923550  8.651460  2.236530
149  2 -0.7038  8.957370  8.608920  8.213180
150  2 -0.7404  8.644140  9.068580 14.935400
151  2 -0.8586  8.818590 14.479000  2.786800
152  2 -0.7902  9.514230 15.241100  8.213720
153  2 -0.7612  8.542400 14.910400 14.607700
154  2 -0.8209 15.013300  2.670420  2.432370
155  2 -0.7422 15.044000  2.575290  8.710800
156  2 -0.8143 14.715500  2.577370 15.019700
157  2 -0.7148 15.034200  8.948260  2.624250
158  2 -0.8513 15.370400  9.117960  8.353140
159  2 -0.7781 15.247100  8.695810 14.379600
160  2 -0.6673 14.409900 14.706500  2.191570
161  2 -0.7390 14.971500 15.046200  8.266520
162  2 -0.7219 14.878400 15.018500 14.451200
163  2 -0.7504 -0.338304 17.262500  1.947870
164  2 -0.7769 17.604900 17.846700  8.779790
165  2 -0.8415  0.220703  0.403115 14.524300
166  2 -0.7257 17.617200  5.747450  2.578690
167  2 -0.7509  0.617214  5.652570  8.355750
168  2 -0.6660 17.316300  6.033110 13.836100
169  2 -0.7419 18.120000 11.321900  2.443460
170  2 -0.7223 18.142600 12.001600  8.723980
171  2 -0.8667 17.683600 12.026500 14.532800
172  2 -0.7617  5.473480 17.746500  2.748860
173  2 -0.7780  5.987760 18.171300  7.903740
174  2 -0.7493  5.779260 17.518600 14.980400
175  2 -0.7886  5.973230  5.553750  2.392180
176  2 -0.7493  6.278310  5.698820  8.228980
177  2 -0.7980  6.047070  5.739330 14.578300
178  2 -0.7956  5.811240 12.364400  2.469360
179  2 -0.9431  5.649670 12.271900  8.763890
180  2 -0.7151  6.036170 11.782600 14.322200
181  2 -0.6774 12.166500 18.201300  2.497820
182  2 -0.7856 12.307000 17.760900  8.754410
183  2 -0.7986 12.246800 17.865100 15.002400
184  2 -0.7476 12.304100  6.120200  3.014700
185  2 -0.7610 12.056500  6.199840  8.591450
186  2 -0.7797 11.890100  6.026680 14.935000
187  2 -0.7046 12.181200 11.531200  1.363810
188  2 -0.7618 11.941200 11.943100  8.620590
189  2 -0.8390 12.556800 12.306500 14.381900
190  2 -0.8365 17.903500  2.677430 18.148100
191  2 -0.8753 17.873900  3.023540  5.448400
192  2 -0.6349 18.398400  3.186580 11.356300
193  2 -0.7592 -0.009002  8.789390 17.855800
194  2 -0.8456 18.218000  8.672320  5.591620
195  2 -0.6821 17.826400  9.310790 11.644400
196  2 -0.7487 17.959100 14.406900 17.810400
197  2 -0.8352 17.369800 14.806900  5.582420
198  2 -0.7638 -0.058295 15.284400 11.830200
199  2 -0.6610  5.932280  2.414280 17.228200
200  2 -0.7369  5.406180  2.826430  5.556770
201  2 -0.7081  6.167980  2.408540 11.692600
202  2 -0.6769  6.100370  9.393930 17.957400
203  2 -0.8338  6.277070  9.070550  5.628680
204  2 -0.7794  5.935520  8.964820 11.541200
205  2 -0.8804  5.972030 14.968300 18.174800
206  2 -0.8362  6.112900 15.066800  5.539980
207  2 -0.8339  5.935290 14.636200 12.019700
208  2 -0.7868 12.157900  2.762830 17.987300
209  2 -0.7798 11.123400  3.095830  5.232580
210  2 -0.6800 12.020500  2.350660 11.480800
211  2 -0.7380 11.198000  8.392910 17.987200
212  2 -0.8422 11.519900  8.443190  5.717880
213  2 -0.8705 11.490600  9.134740 11.305000
214  2 -0.6982 11.507700 15.005400 17.774200
215  2 -0.8483 11.836800 14.814700  5.717710
216  2 -0.7664 11.899800 14.448300 12.091600

