Generated by pymatgen.io.lammps.data.LammpsData

216  atoms

  2  atom types

0.000000 18.096178  xlo xhi
0.000000 18.140645  ylo yhi
0.000000 18.233787  zlo zhi

Masses

1  208.9804
2   78.9600

Atoms

1    1  0.7449  0.624141 17.422800 17.801100
2    1  0.8182  0.040982 17.868500  5.621450
3    1  0.7085 17.560900 17.952300 11.574900
4    1  0.7504 18.285600  5.798040 17.578500
5    1  0.7489 18.320900  6.296720  5.951460
6    1  0.8395 18.345100  5.844690 12.225700
7    1  0.7976  0.102498 11.921700 17.688100
8    1  0.7841 18.459100 11.455000  5.626970
9    1  0.8051 17.779300 11.776300 11.980600
10   1  0.8511  5.958420 17.746600 17.382300
11   1  0.6780  5.774570 17.624500  5.309980
12   1  0.7800  6.134690 17.790900 11.444800
13   1  0.7557  5.938180  5.555070 17.918800
14   1  0.7540  6.018970  5.506570  5.849410
15   1  0.8561  5.806810  5.547250 11.711600
16   1  0.8004  6.108190 12.006800 17.511700
17   1  0.7914  5.661790 11.264600  5.546300
18   1  0.7040  5.707570 11.274700 11.804600
19   1  0.8095 12.295400 18.055000 17.457300
20   1  0.7490 12.111000 18.002300  4.863280
21   1  0.7016 11.925700 17.866300 11.193100
22   1  0.7551 11.655400  5.918920 17.320100
23   1  0.8975 12.351400  5.853040  5.699240
24   1  0.8013 12.201500  5.994290 11.631900
25   1  0.7338 11.750900 11.725600 17.991300
26   1  0.7388 12.385500 11.805900  5.758240
27   1  0.8638 12.166300 11.782100 11.244100
28   1  0.7945  0.670207  2.836650  3.079560
29   1  0.8013 17.951200  2.600650  8.637510
30   1  0.7381  0.352088  2.010970 14.793000
31   1  0.7508 18.423800  8.729650  2.500700
32   1  0.7069 17.944900  9.077760  8.795330
33   1  0.7307  0.035856  8.686260 14.891600
34   1  0.8034 -0.045142 14.530300  2.623300
35   1  0.8236  0.081538 15.096400  8.399460
36   1  0.7407 17.694500 14.540500 14.360400
37   1  0.7721  6.341580  2.767410  2.776730
38   1  0.8484  5.916340  3.047770  8.387930
39   1  0.7801  5.995230  2.160610 14.310200
40   1  0.8323  6.265840  9.151170  2.408010
41   1  0.8022  5.820480  8.515110  8.355850
42   1  0.7743  6.579230  8.829510 15.082300
43   1  0.7812  6.313920 15.023500  2.616050
44   1  0.8358  5.649340 14.959500  8.345820
45   1  0.7434  6.591710 15.046600 14.757400
46   1  0.7711 12.028300  2.647180  2.203480
47   1  0.8093 12.369600  2.856170  8.519500
48   1  0.7957 11.875400  2.584340 14.706500
49   1  0.7474 12.389200  8.871990  2.524310
50   1  0.7518 11.421300  9.171840  8.304980
51   1  0.7815 12.306800  8.739890 14.935300
52   1  0.7986 12.330900 15.018000  2.642690
53   1  0.6733 11.640700 15.496800  8.563270
54   1  0.8359 12.487400 14.611500 14.983400
55   1  0.7164  3.319660 17.483000  2.504850
56   1  0.8223  3.083310 17.818900  9.203380
57   1  0.7825  3.307640 17.818700 14.927200
58   1  0.7985  3.177650  6.321060  2.585850
59   1  0.7100  2.439320  6.024820  8.707380
60   1  0.8001  2.987770  5.661020 14.395200
61   1  0.8217  3.346280 11.938700  2.635770
62   1  0.7852  3.035440 11.478800  8.766850
63   1  0.8172  3.113430 11.545600 14.772900
64   1  0.8206  9.187620  0.176938  2.442330
65   1  0.6471  9.030440 17.792800  8.202080
66   1  0.8143  9.468260  0.216108 14.872400
67   1  0.7678  8.882230  6.036680  3.054530
68   1  0.8984  9.394320  5.789320  8.836590
69   1  0.7750  8.900170  6.326990 13.858900
70   1  0.7271  9.077270 11.785700  2.265130
71   1  0.8328  8.910490 12.353300  8.456570
72   1  0.8533  9.068430 11.854300 14.217800
73   1  0.9270 15.086700 18.055400  2.603170
74   1  0.7804 15.690900 17.732800  8.089760
75   1  0.7441 14.859300 18.049200 14.236900
76   1  0.7748 14.645800  5.498720  2.598760
77   1  0.7795 15.200700  5.685720  8.799090
78   1  0.7595 15.554500  5.291520 15.216400
79   1  0.8320 15.649700 12.272500  2.464460
80   1  0.7461 15.621000 12.062200  8.765030
81   1  0.7297 14.664900 11.879500 14.610100
82   1  0.8400  3.746490  2.960160 17.793600
83   1  0.7073  3.014700  2.537000  5.581740
84   1  0.6995  3.409080  2.633430 11.320500
85   1  0.8098  2.929870  8.602790 -0.176627
86   1  0.7639  2.963620  8.721650  5.864780
87   1  0.7632  3.287460  8.573060 11.256900
88   1  0.8167  3.065290 14.633100 17.380500
89   1  0.7571  2.781880 14.598700  5.724560
90   1  0.8416  3.333300 14.384700 11.769800
91   1  0.7808  9.412700  3.377780 17.868100
92   1  0.8282  9.165020  3.015770  5.390910
93   1  0.8036  9.033880  2.338970 11.263800
94   1  0.7035  8.940750  9.316860 18.144100
95   1  0.7905  9.295110  8.939610  5.454410
96   1  0.7475  8.555100  8.358780 11.073100
97   1  0.7444  9.389960 14.929600 17.839500
98   1  0.8061  9.640310 15.449300  5.200670
99   1  0.7182  9.154590 14.853600 11.295800
100  1  0.8180 15.194100  2.615790 17.935600
101  1  0.7259 15.231900  2.262720  5.490500
102  1  0.8284 14.883000  2.824710 11.738200
103  1  0.7819 15.191000  9.070180 17.818300
104  1  0.8535 15.239100  8.946370  6.017270
105  1  0.7147 14.896600  8.616550 12.007400
106  1  0.7742 15.713900 15.312200 17.117500
107  1  0.8494 15.000200 14.754700  5.789590
108  1  0.7585 15.317500 14.996300 11.330900
109  2 -0.8437  3.383970 17.703100 17.650600
110  2 -0.7882  2.603940 17.741700  5.751590
111  2 -0.7509  3.398600 17.312500 12.038800
112  2 -0.8009  2.888870  5.983550 -0.300777
113  2 -0.8238  3.008710  5.836560  5.441100
114  2 -0.8657  2.757580  5.489200 11.598000
115  2 -0.7702  3.090120 11.865500 17.451100
116  2 -0.8850  2.977790 11.799000  5.463450
117  2 -0.7712  2.880020 11.627800 11.778000
118  2 -0.6953  8.875220 18.245700 17.592400
119  2 -0.8294  9.255460  0.085735  5.235880
120  2 -0.8532  8.738710 17.909900 11.855100
121  2 -0.7490  9.064890  6.280170 18.519600
122  2 -0.7456  9.767500  5.910260  5.903720
123  2 -0.7834  8.818200  5.492840 11.509500
124  2 -0.8245  8.934720 12.283900 17.109300
125  2 -0.6703  9.202210 11.818900  5.377730
126  2 -0.7277  8.921490 12.008100 11.009400
127  2 -0.7328 15.251100 17.925800 18.087000
128  2 -0.8556 15.354800 17.427300  5.235270
129  2 -0.7906 14.596500 18.155900 11.296400
130  2 -0.7584 14.404900  5.254720 18.040800
131  2 -0.7271 15.381800  6.143280  5.969700
132  2 -0.7280 15.132000  5.668950 12.336700
133  2 -0.7557 14.645100 11.444600 17.754500
134  2 -0.7692 15.302100 11.839800  5.907300
135  2 -0.8137 15.065400 11.826700 11.712900
136  2 -0.7464  3.627060  2.159400  2.137400
137  2 -0.7793  2.936550  2.342300  8.538880
138  2 -0.8176  3.232390  2.629120 15.074400
139  2 -0.8229  3.487470  8.754130  2.970210
140  2 -0.9638  2.713070  8.645360  8.481870
141  2 -0.6834  3.515040  8.436670 15.299600
142  2 -0.8022  3.250440 14.460600  2.417010
143  2 -0.7538  2.968100 14.697300  8.730040
144  2 -0.7307  3.109450 14.844400 14.813700
145  2 -0.8804  9.038980  2.789120  2.584570
146  2 -0.7074  9.325270  2.996250  8.302220
147  2 -0.7408  9.172430  2.812990 14.892200
148  2 -0.8592  9.044010  9.065480  2.647790
149  2 -0.8207  8.670980  8.388410  8.408870
150  2 -0.8344  8.988370  8.969670 14.120800
151  2 -0.8066  9.540690 15.248600  2.417430
152  2 -0.7811  8.599210 14.737100  7.767240
153  2 -0.6707  9.454620 14.663000 14.312800
154  2 -0.7729 14.993000  2.559950  2.408780
155  2 -0.7929 15.069100  2.537490  8.832810
156  2 -0.7941 14.998400  2.595480 14.910700
157  2 -0.6489 15.513500  9.726180  2.998100
158  2 -0.6867 14.197100  8.759720  8.742540
159  2 -0.8172 15.221200  8.674390 15.141900
160  2 -0.7342 15.302000 14.885400  2.516580
161  2 -0.8674 15.547900 15.119200  8.402470
162  2 -0.9095 15.195700 15.011300 14.447100
163  2 -0.6957 -0.186055 18.116600  2.746690
164  2 -0.8599 18.348500 17.879500  8.458160
165  2 -0.7975  0.197071 17.551500 14.583300
166  2 -0.6766 17.768000  5.762650  2.910230
167  2 -0.7879 17.812000  5.326710  9.340140
168  2 -0.8625 18.389200  5.534240 14.877100
169  2 -0.7876  0.265893 11.814200  2.263120
170  2 -0.7872 18.398800 11.762400  9.191050
171  2 -0.8118  0.371018 11.559900 14.791600
172  2 -0.7582  6.323910 -0.484032  2.112620
173  2 -0.7895  5.764600 18.140700  8.672540
174  2 -0.8531  6.371970 17.945400 14.442800
175  2 -0.7556  5.777660  6.192440  2.804870
176  2 -0.7218  6.540040  5.341090  8.993190
177  2 -0.7398  6.002510  5.865140 14.668200
178  2 -0.8027  6.249770 11.928100  2.499070
179  2 -0.7198  6.034270 11.543300  8.404560
180  2 -0.8110  6.327540 11.774700 14.513700
181  2 -0.8584 12.407000 -0.095046  2.245650
182  2 -0.7823 12.212200 18.177300  8.202360
183  2 -0.8193 12.153300 17.685000 14.656800
184  2 -0.7544 12.086800  6.085440  2.990020
185  2 -0.7647 12.239300  5.869960  8.822020
186  2 -0.7496 11.875200  5.985050 14.503900
187  2 -0.7738 12.086400 12.058400  2.357030
188  2 -0.7624 12.108900 12.136500  8.635300
189  2 -0.7444 12.112600 12.058600 14.204500
190  2 -0.6498  0.637749  3.221850 18.529500
191  2 -0.8014  0.005469  2.746820  5.714610
192  2 -0.7119 -0.150371  2.616380 12.127600
193  2 -0.8455  0.030394  8.938970 17.906800
194  2 -0.8823 -0.313024  8.887530  5.689360
195  2 -0.7682 18.388900  8.896690 11.579700
196  2 -0.8680  0.273189 14.811500 17.736400
197  2 -0.8028  0.059876 14.443400  5.366070
198  2 -0.7127 18.322500 14.848600 11.368600
199  2 -0.7421  6.342010  2.890950 17.834300
200  2 -0.8575  6.238320  2.858150  5.664110
201  2 -0.8042  6.329180  2.780360 11.354000
202  2 -0.7891  6.022700  9.126290 17.725800
203  2 -0.7652  5.986150  8.465390  5.584290
204  2 -0.8915  5.754890  7.990410 10.976700
205  2 -0.7714  6.535020 14.822100 17.615500
206  2 -0.6959  6.116820 14.857500  5.672680
207  2 -0.7188  6.182570 14.388900 10.918000
208  2 -0.8382 12.049000  2.520540 17.720400
209  2 -0.7645 12.278200  2.742990  5.587180
210  2 -0.7566 12.095400  3.005010 11.979300
211  2 -0.8122 11.971500  8.844250 17.563000
212  2 -0.7691 12.236100  8.387250  5.630770
213  2 -0.7252 12.085700  8.929880 11.554200
214  2 -0.7137 12.949600 15.082200 -0.475509
215  2 -0.8317 12.117400 14.885900  5.759040
216  2 -0.6817 12.403800 14.741300 11.634800

