Generated by pymatgen.io.lammps.data.LammpsData

216  atoms

  2  atom types

0.000000 18.096178  xlo xhi
0.000000 18.140645  ylo yhi
0.000000 18.233787  zlo zhi

Masses

1  208.9804
2   78.9600

Atoms

1    1  0.7616  0.792205 17.226400 18.108000
2    1  0.8060  0.246560 17.652300  5.797240
3    1  0.7788 17.668000  0.598222 11.729900
4    1  0.8467 18.233400  5.929060  0.143431
5    1  0.8343  0.078247  5.906960  6.443660
6    1  0.7242  0.210471  6.345110 12.211800
7    1  0.9234  0.753602 11.628700  0.479208
8    1  0.7395  0.794387 12.161600  6.759110
9    1  0.6721  0.353275 12.391000 12.325000
10   1  0.6333  6.625630  0.435020 -0.021485
11   1  0.7167  5.688170 17.873200  5.877260
12   1  0.8063  5.644140 17.870900 12.311700
13   1  0.8036  6.005650  5.980790  0.307816
14   1  0.7307  6.416650  5.557090  6.213240
15   1  0.8411  6.313440  5.937970 12.388300
16   1  0.8983  6.624200 11.423700  0.234050
17   1  0.8180  6.113130 11.543700  6.621800
18   1  0.8075  6.533700 12.348200 12.786800
19   1  0.6636 12.132400 17.561400 17.629700
20   1  0.8021 12.046900 17.806000  6.186340
21   1  0.8016 11.426600 17.440400 11.248300
22   1  0.8464 12.499900  5.861410 17.903100
23   1  0.7380 12.111200  5.586940  5.614140
24   1  0.6620 12.397600  5.656110 12.436200
25   1  0.7292 12.053400 11.277100  0.176184
26   1  0.7116 11.795800 12.109600  5.687560
27   1  0.8045 12.156300 11.487900 12.224700
28   1  0.7116  0.784841  2.467800  3.249080
29   1  0.7029  0.341519  3.149590  9.909670
30   1  0.7775  0.735512  2.819120 15.219900
31   1  0.8100  0.177692  8.747880  3.480570
32   1  0.7990  0.281976  8.714450  8.892460
33   1  0.7781 17.583700  8.973050 15.224300
34   1  0.8026  0.410073 14.279900  3.609460
35   1  0.8475 17.829700 14.655200  9.294780
36   1  0.7120  0.794264 15.072400 15.454800
37   1  0.8566  6.391490  2.576020  3.050630
38   1  0.7505  6.192860  2.945730  9.764040
39   1  0.7556  6.227180  2.866270 15.458000
40   1  0.6950  6.882580  8.553660  2.936890
41   1  0.8608  6.167210  9.107830  9.453950
42   1  0.8284  6.362710  8.623190 15.365200
43   1  0.8786  6.136040 14.671500  3.122650
44   1  0.6852  6.159190 15.144000  9.087800
45   1  0.7329  6.625090 15.017700 15.579900
46   1  0.8116 12.659600  2.381530  2.863670
47   1  0.6843 12.893900  2.673550  9.488760
48   1  0.6685 12.143700  2.871870 15.398800
49   1  0.7716 12.015000  8.272480  3.159640
50   1  0.7899 12.099500  9.050580  8.977620
51   1  0.8716 12.326900  8.668550 15.785800
52   1  0.7459 11.917900 14.506800  2.988230
53   1  0.6389 12.580200 14.674800  8.572020
54   1  0.7936 12.351400 14.867500 15.425800
55   1  0.6774  3.118650 17.371700  2.495790
56   1  0.7805  2.899620 17.495900  9.432120
57   1  0.6444  3.209990  0.334081 15.284100
58   1  0.7921  3.154500  5.251790  3.370430
59   1  0.8028  3.269260  5.927680  9.475250
60   1  0.7802  2.942180  6.154020 15.559000
61   1  0.8234  3.248150 11.054800  3.476340
62   1  0.7636  3.277940 11.744200  9.435470
63   1  0.8006  3.561380 12.030300 15.751400
64   1  0.8446  9.221480 17.510500  2.865710
65   1  0.7217  8.953050 17.726300  8.601640
66   1  0.8928  9.093040 18.035600 15.185000
67   1  0.7451  9.492190  5.116120  3.002600
68   1  0.6793  9.659830  5.430810  9.784790
69   1  0.8670  8.795920  5.561630 15.344900
70   1  0.7550  9.215130 11.897300  3.216400
71   1  0.6705  9.439200 12.363900  9.739270
72   1  0.8033  9.585480 11.870000 15.997800
73   1  0.7629 15.294100 17.828400  2.979430
74   1  0.7691 15.502000 17.481900  8.990580
75   1  0.7452 15.543900 17.529100 15.178600
76   1  0.8037 15.112000  5.791940  3.372460
77   1  0.7764 15.422600  5.701530  9.425100
78   1  0.7204 15.467800  5.764590 15.707100
79   1  0.7267 14.738900 11.738600  2.840900
80   1  0.7062 15.326000 11.357300  9.021680
81   1  0.7948 15.378700 11.264100 15.529000
82   1  0.6818  3.551250  3.015820 17.816200
83   1  0.7242  3.367930  2.318130  7.199480
84   1  0.7283  3.135450  2.688460 12.343700
85   1  0.8705  2.763440  8.233100  0.100761
86   1  0.7370  3.721540  8.169770  5.913870
87   1  0.7214  3.085650  8.467770 12.422700
88   1  0.8044  3.281290 14.068800  0.168828
89   1  0.7517  3.296050 14.308600  6.144320
90   1  0.7184  3.377550 15.048200 12.678600
91   1  0.7930  9.714560  2.352470  0.049271
92   1  0.7303  9.154510  2.991560  6.614010
93   1  0.9619  9.247810  2.357190 12.620600
94   1  0.7026  9.132800  8.720120  0.556704
95   1  0.8310  9.104310  9.307890  6.104650
96   1  0.7421  9.508970  9.020570 12.847700
97   1  0.7796  9.234640 14.562900 18.300700
98   1  0.6838  9.180850 14.971600  6.714300
99   1  0.8804  8.875260 14.699300 12.209600
100  1  0.8560 15.416700  2.716700 18.054300
101  1  0.6509 15.560500  2.748450  7.340140
102  1  0.7247 14.943400  2.889800 12.891900
103  1  0.7924 15.250900  8.737850 18.317400
104  1  0.7379 15.278000  9.103890  5.749050
105  1  0.8090 15.363800  9.035300 11.712500
106  1  0.6930 15.106100 14.183200  0.123356
107  1  0.8190 15.412100 14.940000  6.069810
108  1  0.7992 14.388600 14.604900 11.915400
109  2 -0.8044  3.474750 17.257800 17.958000
110  2 -0.7774  2.951690 17.336600  5.970320
111  2 -0.8243  2.853790 17.574000 12.256900
112  2 -0.8703  3.277190  5.801210  0.184670
113  2 -0.7429  3.632650  5.253730  6.489420
114  2 -0.7700  3.472580  5.607150 12.512200
115  2 -0.6688  3.597900 10.972600  0.377242
116  2 -0.8367  3.337240 11.205000  6.686450
117  2 -0.7105  3.509020 11.722200 12.986800
118  2 -0.8787  9.292270 17.668900 17.762800
119  2 -0.7132  9.383980  0.190025  5.866720
120  2 -0.6905  9.163920 17.889700 12.475200
121  2 -0.6759  9.836250  5.100170 -0.046489
122  2 -0.7382  9.383830  5.650060  6.364930
123  2 -0.7528  9.199400  5.274080 12.659700
124  2 -0.9279  9.268070 11.665500  0.385716
125  2 -0.7886  9.005820 12.133100  6.369110
126  2 -0.7700  9.156780 11.919000 12.805300
127  2 -0.6744 15.718000 16.996500 18.305100
128  2 -0.8593 15.700900 17.375200  6.218590
129  2 -0.6547 15.010600 17.778200 11.687600
130  2 -0.7770 15.379400  5.356180  0.220401
131  2 -0.7311 15.336100  5.443160  6.342160
132  2 -0.8068 15.442500  6.532530 12.091900
133  2 -0.7832 15.770000 11.220600  0.042301
134  2 -0.7362 15.579400 12.320800  5.661920
135  2 -0.7229 14.994100 11.574100 12.545400
136  2 -0.7760  3.820440  2.729370  2.708420
137  2 -0.8716  3.430360  3.155630  9.642310
138  2 -0.9178  3.435530  3.430680 15.267600
139  2 -0.7862  3.091100  8.364690  3.223440
140  2 -0.7570  3.378610  8.902010  9.392080
141  2 -0.6724  2.887380  9.299520 15.454900
142  2 -0.7344  3.522960 13.757800  3.424800
143  2 -0.7409  2.644690 14.921400  9.549760
144  2 -0.8192  3.401490 14.774000 15.852200
145  2 -0.6719  9.650930  2.050190  3.005090
146  2 -0.7220  9.596490  2.654270 10.093000
147  2 -0.8428  8.987170  2.635330 15.240900
148  2 -0.8663  9.498000  7.995290  3.599810
149  2 -0.6427  8.948730  9.203100  8.942920
150  2 -0.7143  8.999010  8.644900 15.699900
151  2 -0.7791  9.009180 14.603600  3.215290
152  2 -0.9245  8.767020 15.315300  9.696540
153  2 -0.6841  9.546040 15.208400 15.095500
154  2 -0.6680 15.756700  2.493840  2.851530
155  2 -0.8767 15.644100  2.605220  9.917830
156  2 -0.8044 15.695400  2.666160 15.658800
157  2 -0.8260 15.399900  8.684720  3.013310
158  2 -0.7289 14.981800  8.499080  8.592320
159  2 -0.8861 14.949200  8.644440 15.537900
160  2 -0.6902 14.997600 14.784300  3.084930
161  2 -0.8908 15.031500 14.476400  9.245680
162  2 -0.6621 15.349600 14.445000 14.664100
163  2 -0.7530  0.501817 16.726900  2.767370
164  2 -0.7419 18.084800 17.513900  9.454910
165  2 -0.7661 18.074000 17.981600 15.460800
166  2 -0.6979  0.264807  5.818160  3.277600
167  2 -0.8685  0.366593  5.847560  9.333820
168  2 -0.8001  0.127515  6.129760 15.662800
169  2 -0.7976  0.316668 11.374400  2.855630
170  2 -0.8612 18.234100 11.605400  9.140190
171  2 -0.6599  0.265123 11.773200 16.082800
172  2 -0.7737  6.338860 17.728300  3.212100
173  2 -0.8198  5.669650 18.419000  9.371860
174  2 -0.8010  6.149780 18.041600 15.101300
175  2 -0.7612  6.499770  5.767540  2.795470
176  2 -0.7295  6.306500  6.344020  9.579150
177  2 -0.8268  6.181190  6.061110 15.044100
178  2 -0.6709  5.825850 11.776100  3.088370
179  2 -0.7372  6.115930 12.140800 10.024700
180  2 -0.7660  6.690800 11.831600 15.827600
181  2 -0.6830 12.029500 17.543700  2.513530
182  2 -0.8470 11.646700 18.119000  8.841720
183  2 -0.6724 12.097000 17.679500 14.711700
184  2 -0.7671 12.782600  5.448490  2.376020
185  2 -0.6578 12.674000  6.056330  8.579770
186  2 -0.7832 11.594900  6.303080 15.397700
187  2 -0.9058 11.806800 11.321300  2.939460
188  2 -0.8386 12.324000 11.829400  8.961560
189  2 -0.7284 12.165900 11.592700 15.146800
190  2 -0.6775  0.342052  3.243850  0.116325
191  2 -0.7411  0.433042  2.532240  6.131830
192  2 -0.8221 17.969300  3.246320 12.707700
193  2 -0.7383  0.233191  8.921560 18.138100
194  2 -0.8469  0.424980  8.221010  6.421930
195  2 -0.7662  0.254377  9.327840 12.149000
196  2 -0.7135  0.493853 14.457300 18.331000
197  2 -0.8321  0.543068 14.797900  6.251640
198  2 -0.5655 17.867800 15.492700 11.867700
199  2 -0.7789  6.918160  3.307010  0.532320
200  2 -0.7618  6.240840  2.548760  5.810580
201  2 -0.7226  6.457860  3.004240 12.451000
202  2 -0.8016  5.990530  8.890400  0.367473
203  2 -0.7774  6.587110  8.890340  6.750840
204  2 -0.7095  6.805390  9.231080 12.786700
205  2 -0.7288  6.084990 14.086200  0.632066
206  2 -0.7953  6.151670 14.227500  6.266590
207  2 -0.8074  6.329780 15.357200 12.591100
208  2 -0.8188 12.539700  2.438380  0.170064
209  2 -0.7117 12.202400  2.676720  5.917520
210  2 -0.7901 12.278200  2.636790 12.621200
211  2 -0.8896 12.036800  8.463070  0.143551
212  2 -0.6895 12.176300  9.091080  6.081480
213  2 -0.7523 12.549200  8.755370 12.379400
214  2 -0.8701 11.699500 14.203200 17.921500
215  2 -0.8441 12.042200 15.245300  5.733580
216  2 -0.7244 11.759300 14.272800 12.427200

