Generated by pymatgen.io.lammps.data.LammpsData

48  atoms

 2  atom types

0.000000 11.564600  xlo xhi
0.000000 11.564600  ylo yhi
0.000000 6.997800  zlo zhi

Masses

1  106.42
2   78.96

Atoms

1   1  0.521217  1.510910 0.000000
2   1 11.043400 10.053700 0.000000
3   1 10.053700  0.521217 3.498900
4   1  1.510910 11.043400 3.498900
5   1  5.261080  7.293210 0.000000
6   1  6.303520  4.271390 0.000000
7   1  7.293210  6.303520 3.498900
8   1  4.271390  5.261080 3.498900
9   1  2.680440  4.138390 0.000000
10  1  8.884160  7.426210 0.000000
11  1  7.426210  2.680440 3.498900
12  1  4.138390  8.884160 3.498900
13  1  3.101860  9.920690 0.000000
14  1  8.462740  1.643910 0.000000
15  1  9.920690  8.462740 3.498900
16  1  1.643910  3.101860 3.498900
17  1  1.302060  7.084360 1.749450
18  1 10.262500  4.480240 5.248350
19  1 10.262500  4.480240 1.749450
20  1  1.302060  7.084360 5.248350
21  1  4.480240  1.302060 5.248350
22  1  7.084360 10.262500 1.749450
23  1  7.084360 10.262500 5.248350
24  1  4.480240  1.302060 1.749450
25  2  2.046590  1.273150 1.926000
26  2  9.518010 10.291500 5.071800
27  2  9.518010 10.291500 1.926000
28  2  2.046590  1.273150 5.071800
29  2 10.291500  2.046590 5.424900
30  2  1.273150  9.518010 1.572900
31  2  1.273150  9.518010 5.424900
32  2 10.291500  2.046590 1.572900
33  2  3.735710  7.055450 5.071800
34  2  7.828890  4.509150 1.926000
35  2  7.828890  4.509150 5.071800
36  2  3.735710  7.055450 1.926000
37  2  7.055450  7.828890 1.572900
38  2  4.509150  3.735710 5.424900
39  2  4.509150  3.735710 1.572900
40  2  7.055450  7.828890 5.424900
41  2  6.900250  1.117950 1.749450
42  2  4.664350 10.446700 5.248350
43  2  4.664350 10.446700 1.749450
44  2  6.900250  1.117950 5.248350
45  2 10.446700  6.900250 5.248350
46  2  1.117950  4.664350 1.749450
47  2  1.117950  4.664350 5.248350
48  2 10.446700  6.900250 1.749450

