Generated by pymatgen.io.lammps.data.LammpsData

78  atoms

 2  atom types

0.000000 12.833567  xlo xhi
0.000000 10.261472  ylo yhi
0.000000 17.144600  zlo zhi
-5.924464 0.000000 0.000000  xy xz yz

Masses

1  106.42
2   78.96

Atoms

1   1  0.780245  7.152380  4.307760
2   1  3.958440  1.959880 12.730100
3   1 -2.729690  7.183250  4.180880
4   1  7.603980  2.219110 12.584600
5   1 -0.718400  4.010110  4.535690
6   1  5.547710  5.321140 12.365800
7   1  0.685624  0.617452  9.978170
8   1 -2.609290  4.905960  1.363340
9   1  9.934190  0.624780 10.293300
10  1  0.820259  5.144840  1.702510
11  1  5.786660  7.758660 10.402000
12  1 -0.995529  8.036400  1.365730
13  1  7.526500  4.528140 15.347500
14  1  4.030870  8.769400  7.499280
15  1  4.066090  4.316870 15.627100
16  1 -5.193430  8.654460  7.297860
17  1  6.180940  1.430100 15.759000
18  1 -0.869519  1.513800  7.054730
19  2  3.073800  3.565250  4.591060
20  2  1.566520  5.121490 12.978500
21  2  4.732420  0.293803  4.362830
22  2  0.043230  9.037850 12.151400
23  2  8.307440  4.085660  4.907600
24  2 -3.459280  4.896140 11.928900
25  2 -3.296260  7.712560  9.839090
26  2 -4.862610  8.138890  1.532060
27  2 -0.134692  4.633250  9.450430
28  2 -0.911592  1.707400  1.369850
29  2  1.966540  7.894270 11.106900
30  2  2.715860  8.285750  1.387740
31  2  9.587580  1.210660 16.021100
32  2  8.326580  1.780760  7.349990
33  2  5.985010  7.644600 15.188300
34  2  5.052890  4.936150  7.809840
35  2  2.514030  0.863386 15.910800
36  2  2.961560  1.984640  6.454800
37  2 -1.044610  8.459190  5.510350
38  2  5.771620  1.054590 11.306100
39  2 -2.605080  5.103870  5.735040
40  2  7.256840  4.094500 11.024000
41  2  0.956397  5.319900  5.910400
42  2  3.809080  3.901680 11.260500
43  2 -1.022790  1.771060 11.317600
44  2 -0.798943  3.844870  0.156806
45  2  4.013860  8.859800 11.759300
46  2  0.667266  6.982870 17.004300
47  2 -5.363050  9.031100 11.645500
48  2 -2.603440  6.939110 16.981300
49  2  5.857220  5.520490 16.742700
50  2  5.753380  7.790120  5.956250
51  2  4.350100  2.643460  0.138117
52  2  0.944099  0.371742  5.830580
53  2  7.980830  2.644990 17.065000
54  2 10.186200  0.290393  5.702280
55  2  2.640430  6.304990  2.851600
56  2  2.226250  3.010890 14.305800
57  2 -2.960030  9.216800  2.653800
58  2  7.940640  0.305345 14.407900
59  2 -2.371820  2.981100  2.812680
60  2  7.415560  6.416020 13.699100
61  2  3.702880  6.185220 13.922300
62  2  1.197770  3.216460  3.165210
63  2  9.336830  3.405050 13.893400
64  2 -4.261520  6.025620  2.818040
65  2  4.317960  0.201714 14.461100
66  2  0.644727  9.226300  2.869510
67  2  2.445760 -0.423424  8.713520
68  2 -2.531680  2.544090  8.677850
69  2  3.929460  6.720420  8.871110
70  2  7.494240  6.702890  8.944610
71  2  8.227540 -0.188080  8.780660
72  2  0.785372  2.620460  8.503650
73  2 -0.313512  6.294580  7.818780
74  2  4.924410  3.103700  9.315510
75  2 -0.524580  0.177205 13.189900
76  2 -0.989488  6.101890 15.461600
77  2  6.041190  3.516680  1.663250
78  2  5.819020  9.264460  4.167920

