Generated by pymatgen.io.lammps.data.LammpsData

216  atoms

  2  atom types

0.000000 18.096178  xlo xhi
0.000000 18.140645  ylo yhi
0.000000 18.233787  zlo zhi

Masses

1  208.9804
2   78.9600

Atoms

1    1  0.7904  0.420144 17.569500 18.404900
2    1  0.7881  0.877470 17.786800  6.292380
3    1  0.7110  0.871309 18.453500 12.885800
4    1  0.7287  1.037920  5.813310 18.385500
5    1  0.8336  0.554644  5.597180  6.108890
6    1  0.8291  0.626636  5.799730 11.770400
7    1  0.8722  0.368424 11.818200  0.005726
8    1  0.7854  0.782319 11.967200  5.774620
9    1  0.7265  0.514219 11.627400 12.324100
10   1  0.8028  6.556660 17.717500 -0.038338
11   1  0.7506  6.674640 17.854600  6.408520
12   1  0.8011  6.889320 17.911100 12.090400
13   1  0.7603  6.454200  5.180890 -0.474893
14   1  0.8150  6.739320  6.109520  6.657550
15   1  0.8653  6.539910  5.434020 12.053300
16   1  0.7268  5.839810 11.971800  0.012919
17   1  0.7915  6.439850 11.695500  5.835340
18   1  0.7114  6.917230 11.588400 11.842300
19   1  0.7941 12.599500  0.100340  0.256874
20   1  0.7684 12.504700 17.932500  6.032710
21   1  0.7471 12.631500 18.101700 12.022700
22   1  0.7386 12.479800  6.064770  0.089948
23   1  0.7885 12.264900  5.826050  6.045710
24   1  0.8323 12.042900  6.058250 11.827700
25   1  0.8238 12.908000 11.590400 -0.055025
26   1  0.8030 12.934800 11.603900  6.240980
27   1  0.7277 12.424400 11.803400 12.291600
28   1  0.8196  0.812879  3.037490  2.979390
29   1  0.8056  0.392772  2.761560  9.075930
30   1  0.8178  0.545776  2.719490 15.293400
31   1  0.7656  0.635833  8.741550  3.021290
32   1  0.7381  0.434953  8.521570  9.122330
33   1  0.7964  0.852639  8.490110 14.991600
34   1  0.7356  0.377003 14.585300  3.315120
35   1  0.8769  0.800371 15.252900  9.017860
36   1  0.7304  0.249856 14.410900 14.723400
37   1  0.7781  6.313990  2.678910  3.322780
38   1  0.7492  6.936280  3.073210  9.028880
39   1  0.7727  6.514020  2.967070 14.811200
40   1  0.7831  6.641270  8.915910  3.240510
41   1  0.8212  6.692230  8.837860  9.736160
42   1  0.7902  6.144060  8.572650 15.119400
43   1  0.8499  6.831040 14.753000  3.223860
44   1  0.8310  6.310740 14.944500  9.253180
45   1  0.7387  6.553710 14.669100 15.638100
46   1  0.7643 13.310000  2.922360  3.055880
47   1  0.8028 12.881500  2.828490  9.235250
48   1  0.7327 12.100300  3.046430 15.394900
49   1  0.7460 12.729300  8.803540  3.136220
50   1  0.8186 12.664900  8.827910  9.083500
51   1  0.7579 13.007900  9.362750 14.917500
52   1  0.7847 12.645700 14.747600  2.869980
53   1  0.6977 12.310400 14.907900  8.977510
54   1  0.8561 12.795300 15.035100 15.452600
55   1  0.7539  3.579440 -0.529138  3.102150
56   1  0.8924  3.695490 17.861000  9.121260
57   1  0.7538  3.439700 17.612800 15.170400
58   1  0.7986  3.214860  5.757090  3.054590
59   1  0.8336  3.746520  6.171630  8.893010
60   1  0.6941  3.440820  5.818490 15.552100
61   1  0.7813  3.438970 12.098000  2.971540
62   1  0.7994  3.319230 11.681000  8.708230
63   1  0.7857  3.552810 12.183300 15.214900
64   1  0.7992  9.740690 17.933000  3.075560
65   1  0.7757  9.562140 17.750200  9.611800
66   1  0.7329  9.375680 18.542600 15.610200
67   1  0.8603  9.881810  6.059120  2.932240
68   1  0.7323  9.488740  5.765320  9.161620
69   1  0.8182  9.441550  6.212870 15.105300
70   1  0.7985  9.597640 11.658300  3.383530
71   1  0.7746  9.725890 12.208000  9.141360
72   1  0.7921  9.790970 12.315600 14.970000
73   1  0.8301 15.670900 18.455000  3.179390
74   1  0.7295 15.481400 18.149800  9.104220
75   1  0.6816 15.948300 17.820600 15.125400
76   1  0.7980 15.913700  5.653480  2.633140
77   1  0.7642 15.924900  6.131850  9.174710
78   1  0.8319 15.900500  5.595810 15.032500
79   1  0.7905 15.949200 11.623700  2.915900
80   1  0.8427 15.441700 11.918800  8.896130
81   1  0.7208 15.552200 11.912000 15.176600
82   1  0.7819  3.581090  2.483050  0.176214
83   1  0.8148  3.726020  2.928860  6.058120
84   1  0.8435  3.658630  2.706320 12.449000
85   1  0.7570  3.533490  8.849620  0.468349
86   1  0.7430  3.568850  9.092520  6.076260
87   1  0.7644  4.109960  9.254620 12.558600
88   1  0.7143  3.557510 15.007300  0.383752
89   1  0.7782  3.756720 15.261900  6.335300
90   1  0.8150  3.891120 14.967000 12.388800
91   1  0.7323  9.933700  2.633890  0.250412
92   1  0.8021  9.232440  2.661300  6.081010
93   1  0.8359  9.381170  2.656170 12.371400
94   1  0.8550  9.628940  8.957630 -0.040441
95   1  0.7101  9.317500  9.052860  6.033460
96   1  0.7857  9.908070  9.200090 12.104800
97   1  0.8376  9.678840 15.352800 -0.312291
98   1  0.8099  9.468270 15.044100  6.220480
99   1  0.8000  9.642860 15.265300 12.105400
100  1  0.9469 15.758300  2.865120 18.037500
101  1  0.6866 15.860600  2.701040  5.881180
102  1  0.7027 15.108400  2.388400 12.645700
103  1  0.7359 15.774600  8.571320 -0.203399
104  1  0.7598 15.558500  8.900480  5.941550
105  1  0.7770 16.162500  9.068480 11.836900
106  1  0.8417 15.640400 14.737000  0.053349
107  1  0.7804 15.572100 15.075300  5.924370
108  1  0.7572 15.585200 15.278200 12.839200
109  2 -0.8292  3.964290 17.724400  0.494843
110  2 -0.8751  3.752010 18.187800  6.618780
111  2 -0.7414  3.847760 18.145300 11.676000
112  2 -0.8636  3.882710  5.699060  0.244220
113  2 -0.7779  3.219790  5.763700  6.061280
114  2 -0.6585  3.669500  5.903460 11.837200
115  2 -0.8357  3.153260 12.031500  0.411250
116  2 -0.8465  3.667680 12.047900  6.015390
117  2 -0.7141  3.536310 11.955500 11.931100
118  2 -0.9160 10.008300 18.159500  0.281380
119  2 -0.8089  9.811720 17.823200  5.991220
120  2 -0.8091  9.506530 17.942300 12.799000
121  2 -0.7488  9.650260  5.834540  0.151587
122  2 -0.7532  9.434240  5.687410  5.853740
123  2 -0.7769  9.452170  6.004230 12.130200
124  2 -0.5857  9.718270 11.868700 -0.179198
125  2 -0.7627  9.568160 11.992300  6.080810
126  2 -0.8807  9.681180 12.118100 12.022200
127  2 -0.7313 15.705300 18.365100 18.407500
128  2 -0.8108 15.752000 17.891600  5.985980
129  2 -0.8387 16.072400 17.673000 12.067100
130  2 -0.7796 15.774400  5.758720 17.793000
131  2 -0.7340 15.882400  6.039930  5.715110
132  2 -0.6988 15.740100  6.074040 12.082200
133  2 -0.8503 15.862200 12.056900  0.085856
134  2 -0.7918 16.040300 11.699000  5.759970
135  2 -0.7387 15.528200 11.884400 11.669900
136  2 -0.8371  3.543630  2.625110  3.273080
137  2 -0.6091  3.749120  2.705600  9.449180
138  2 -0.8028  3.254180  2.680900 15.219800
139  2 -0.8377  4.165200  8.676030  3.291130
140  2 -0.7467  3.687410  8.817440  9.516800
141  2 -0.8073  3.434690  9.231060 15.470400
142  2 -0.8427  3.803320 14.854600  3.548410
143  2 -0.7663  3.678340 14.847300  9.291480
144  2 -0.8388  3.271280 14.800200 15.143200
145  2 -0.6793  9.653340  2.878090  3.141060
146  2 -0.7887  9.736410  2.678020  9.628870
147  2 -0.8494  9.476470  3.415280 15.215700
148  2 -0.8235  9.379580  8.718060  2.755760
149  2 -0.7765  9.482940  9.096310  9.344400
150  2 -0.7033 10.154500  9.078100 14.980000
151  2 -0.6974  9.553490 14.781700  3.100030
152  2 -0.8873  9.487910 15.293300  9.191950
153  2 -0.7075  9.761230 15.138400 15.045000
154  2 -0.8538 15.959800  2.965220  2.313260
155  2 -0.8126 15.553600  2.992100  9.045590
156  2 -0.8491 15.674600  2.760370 15.172400
157  2 -0.8081 15.523100  8.546670  2.574710
158  2 -0.8478 15.648900  8.741040  9.028630
159  2 -0.7837 15.982700  8.967300 14.774700
160  2 -0.7607 15.757400 14.857800  2.913040
161  2 -0.6294 15.903100 14.577700  8.687450
162  2 -0.9219 15.604900 14.679800 15.519100
163  2 -0.7300  0.288492 18.322800  3.368370
164  2 -0.7088  0.784297 18.019300  9.385130
165  2 -0.8638  0.690558 17.772300 15.528200
166  2 -0.9003  0.690551  5.764280  3.190760
167  2 -0.8352  0.814253  5.733250  8.986610
168  2 -0.7853  0.673388  5.541090 14.970100
169  2 -0.8636  0.591529 11.551600  2.966430
170  2 -0.6378  0.320334 12.110400  8.901670
171  2 -0.7871  0.591363 11.806500 15.303100
172  2 -0.7426  6.819460 -0.298252  3.274700
173  2 -0.8357  6.698660 17.880700  9.256390
174  2 -0.7809  6.268420 -0.367513 15.395500
175  2 -0.5882  6.902870  5.904100  3.502160
176  2 -0.8920  6.690370  6.012910  9.235770
177  2 -0.8435  6.478200  5.781950 14.738000
178  2 -0.8100  6.646660 11.959700  2.916180
179  2 -0.6863  6.345520 12.261600  8.623450
180  2 -0.7768  6.476960 11.938600 15.308100
181  2 -0.8257 12.908500 18.185100  3.189620
182  2 -0.8285 12.559400 18.063700  9.167810
183  2 -0.7018 12.390500 17.809400 15.128100
184  2 -0.8109 12.657400  5.774000  3.349190
185  2 -0.7809 12.611700  6.004590  9.162240
186  2 -0.6471 12.441200  6.188110 14.932200
187  2 -0.7474 12.501600 11.839800  2.863990
188  2 -0.8076 12.513400 11.819400  8.955280
189  2 -0.8534 12.643400 12.144500 15.526700
190  2 -0.7663  0.574904  2.822890 17.993500
191  2 -0.7754  0.658431  2.483920  6.015860
192  2 -0.7485  0.960680  3.005720 12.002600
193  2 -0.7964  0.956867  8.555990 18.046000
194  2 -0.7657  0.787460  8.744280  5.868810
195  2 -0.8044  0.939117  8.699450 11.898300
196  2 -0.7514  0.344604 14.822800  0.394545
197  2 -0.8108  0.620887 14.970000  6.302260
198  2 -0.6590  1.136710 14.885200 11.922300
199  2 -0.7803  6.334570  2.502910 -0.212277
200  2 -0.8464  6.658860  3.123900  6.272900
201  2 -0.9012  6.768190  2.765570 12.328300
202  2 -0.6735  6.772190  8.626830 17.933900
203  2 -0.8128  6.682310  8.808790  6.924870
204  2 -0.8520  6.774630  8.760260 12.511800
205  2 -0.8161  6.960940 14.930100 18.410400
206  2 -0.7577  6.665040 14.889100  6.113600
207  2 -0.7739  6.746590 14.825000 12.233200
208  2 -0.8207 12.972500  3.042560  0.034174
209  2 -0.7069 12.427700  2.615100  6.212220
210  2 -0.7949 12.423000  2.758250 12.262900
211  2 -0.8098 12.496000  9.008080  0.026111
212  2 -0.8375 12.488000  8.859650  6.141520
213  2 -0.7741 12.863200  8.978420 11.985400
214  2 -0.7637 12.389100 15.194700 -0.195722
215  2 -0.7576 12.672300 14.149700  5.745830
216  2 -0.7542 13.057300 15.113000 12.276200

