Generated by pymatgen.io.lammps.data.LammpsData

320  atoms

  2  atom types

0.000000 16.864293  xlo xhi
0.000000 23.165087  ylo yhi
0.000000 24.472453  zlo zhi

Masses

1  208.9804
2   78.9600

Atoms

1    1  0.6961  0.337211 11.861500 11.060800
2    1  0.7922  1.191050  9.500230 23.112400
3    1  0.8629  0.745741 -0.137006 10.531800
4    1  0.5747  2.814800  1.789470 21.310300
5    1  0.9173  4.745120 11.690600 10.729800
6    1  0.8796  6.471350 12.575400 23.732600
7    1  0.8537  5.457130  0.399636 10.284800
8    1  0.4643  2.627960 21.472000 21.098900
9    1  0.9346  8.986940 11.822100 10.452600
10   1  0.7980  9.860130 10.443600 21.564800
11   1  0.7160  8.865880 21.988600 10.897300
12   1  0.7789  6.350070 19.368700 23.222700
13   1  0.7953 13.065200 12.199700 10.585400
14   1  0.9076 13.226700 11.304500 23.504500
15   1  0.9108 14.384400 21.389400  9.114160
16   1  0.7904 12.585500 -0.054015 22.279800
17   1  0.7908  1.795900  0.930897  1.267890
18   1  0.7801  2.489150  1.224610 14.702300
19   1  0.7211  3.274070 12.209900  3.546310
20   1  0.8398  2.893740 12.013100 14.662900
21   1  0.8395  7.143780  2.558910  2.440710
22   1  0.8639  6.675600 -0.008256 14.369800
23   1  0.7913  6.300070  9.902590  2.000950
24   1  0.7966  6.480270 12.835900 14.598200
25   1  0.8067 11.003500  0.899774  2.827010
26   1  0.8251 11.303200  0.486521 14.604100
27   1  0.7838 10.840100 13.262400  2.703710
28   1  0.7758 10.600300 12.422600 15.283700
29   1  0.7604 14.344500  0.134744  2.499800
30   1  0.8224 15.602200  1.270080 15.053100
31   1  0.8183 15.870600 11.626300  2.200650
32   1  0.7371 14.977600 12.581700 13.512900
33   1  0.7244  1.624180  4.815830  8.544390
34   1  0.7738  1.237710  6.089140 21.977300
35   1  0.9383  2.855550 16.983900  9.632780
36   1  0.7432  3.217230 17.709200 20.318600
37   1  0.7378  6.100050  5.502080  9.229840
38   1  0.8285  7.272750  6.191110 19.403600
39   1  0.7913  6.884950 17.077500  9.285580
40   1  0.9022  7.480790 16.970100 21.077300
41   1  0.7489 10.389000  5.591970  7.386680
42   1  0.8311 11.126100  6.904420 20.883700
43   1  0.7850 10.228600 18.004200  8.380240
44   1  0.8900 11.822500 17.726400 21.137900
45   1  0.7469 14.632800  6.738760  8.969700
46   1  0.8113 15.133800  6.448130 20.001900
47   1  0.7660 14.939400 16.002200  9.655290
48   1  0.8691  0.024037 18.371000 22.671000
49   1  0.8413  0.187501  5.733590  4.717790
50   1  0.8813 16.327400  6.510100 15.709600
51   1  0.7389  1.566380 17.351400  5.736420
52   1  0.7705  0.583847 17.699600 17.236800
53   1  0.8347  3.681280  6.536660  5.255370
54   1  0.7903  4.285390  5.467950 15.933000
55   1  0.8874  4.997970 18.260300  5.299620
56   1  0.7245  4.912810 18.006300 17.504000
57   1  0.8253  8.805120  8.983150  4.610740
58   1  0.7435  7.756880  8.414280 16.394300
59   1  0.9018  9.605460 17.914000  4.189510
60   1  0.8037  9.816260 17.118000 17.326800
61   1  0.7789 13.210800  7.754660  4.656840
62   1  0.9018 12.475400  5.832110 16.268400
63   1  0.8251 13.607000 17.509500  5.904680
64   1  0.7414 13.473300 17.671000 16.476400
65   1  0.7904  0.785409  2.054410  6.210520
66   1  0.7370 -0.095054  2.111410 19.224100
67   1  0.7561  1.757440 13.433600  6.512240
68   1  0.7352  0.622875 13.416900 19.868000
69   1  0.8106  4.475640  1.975430  5.959930
70   1  0.7128  5.234790  3.573000 19.403900
71   1  0.8175  4.940550 14.169700  7.996210
72   1  0.6872  4.675660 13.540000 18.948700
73   1  0.8894 10.938200  1.307950  9.107140
74   1  0.7448  8.471330  2.203560 17.738800
75   1  0.8045  8.092760 14.762800  5.038400
76   1  0.7122  8.470260 13.169300 18.577800
77   1  0.7614 14.271400  0.852211  6.125100
78   1  0.6644 13.592300  1.313990 17.558600
79   1  0.7815 13.345200 13.845100  6.720700
80   1  0.8570 14.004200 13.258700 18.186800
81   1  0.8816  2.785850  9.226530  8.607930
82   1  0.7736  2.669430  8.950900 18.918900
83   1  0.8788  2.681990 21.833900  7.426680
84   1  0.5822  2.023170 20.623600 17.115800
85   1  0.8954  5.822950 10.319000  6.113270
86   1  0.7076  6.151750  9.814620 19.256000
87   1  0.9209  7.329510 20.709600  7.330300
88   1  0.8063  6.560470 21.219800 19.499700
89   1  0.7648 11.568800  9.933690  6.861080
90   1  0.7720 11.838200 10.166800 17.631800
91   1  0.8110 11.266700 21.195800  6.824500
92   1  0.7402 12.094700 21.559900 18.801500
93   1  0.8523 16.562400 10.091400  5.932800
94   1  0.8074 15.246700  9.808340 19.246200
95   1  0.7666 16.378500 20.932400  5.309210
96   1  0.7567 16.282600 21.042400 19.110900
97   1  0.8472  3.850420  8.578150 14.020200
98   1  0.7672  2.883310  8.382290  1.940920
99   1  0.8140  2.460470 19.260400 13.242900
100  1  0.8097  1.647490 19.354200  1.300520
101  1  0.7585  7.574490  8.209780 10.715300
102  1  0.7004  6.942040  6.440240 24.302900
103  1  0.7158  7.082750 19.128200 13.145500
104  1  0.9144  4.371160 22.147200  3.711010
105  1  0.8281 11.115200  8.049340 12.651800
106  1  0.8848 10.997800  8.197990  0.202632
107  1  0.7103 11.473800 19.501200 13.460700
108  1  0.8464 10.142100 19.944300  0.569274
109  1  0.7608 15.470400  8.782720 12.782800
110  1  0.8893 15.500300  7.886160  1.139180
111  1  0.7557 15.344000 19.612300 12.977200
112  1  0.9368 14.050400 19.755400  0.571983
113  1  0.8140 15.942700  3.436130  0.431515
114  1  0.8642 -0.375542  4.118020 11.862800
115  1  0.8065  2.415350 14.189300 23.846300
116  1  0.7756  0.435573 15.042100 13.441100
117  1  0.7875  4.303540  4.315820  0.823566
118  1  0.7493  4.267550  4.975440 12.298100
119  1  0.8405  5.199910 15.476900  1.525120
120  1  0.7829  4.300880 16.179900 12.922500
121  1  0.7373  8.170410  3.078990 23.111500
122  1  0.8697  8.248280  5.230050 15.019400
123  1  0.8320  8.949040 15.755900  0.704296
124  1  0.7871  8.173820 15.545600 12.549700
125  1  0.7362 10.975300  3.852920  0.557469
126  1  0.8626 10.018700  4.694470 10.919400
127  1  0.8501 15.903700 15.239800  2.983140
128  1  0.8076 12.095500 15.896000 13.004200
129  2 -0.4688 15.975700  3.533860  9.202270
130  2 -0.5564 16.275300  3.728410 21.408900
131  2 -0.5497  1.023700 14.852100  9.061430
132  2 -0.4434  0.462957 15.633600 21.943000
133  2 -0.5452  4.998510  3.169950  9.931350
134  2 -0.5781  6.369050  2.109050 24.521500
135  2 -0.6584  4.444910 14.666400 10.552000
136  2 -0.5452  4.189270 15.501000 21.219400
137  2 -0.5277  8.875130  3.631730  8.859530
138  2 -0.6777  7.515450  3.917110 20.563800
139  2 -0.3207  8.937070 14.377800  9.164870
140  2 -0.3771  9.660520 15.530200 20.557000
141  2 -0.3919 12.441600  3.826120  8.701440
142  2 -0.3677 12.548900  4.513070 21.103200
143  2 -0.5174 12.611800 14.592000  9.376790
144  2 -0.0671 14.428400 14.881900 22.949400
145  2 -0.6752  5.105330  8.706190  4.034870
146  2 -0.5200  2.579790  8.192630 16.316600
147  2 -0.6059  2.602490 19.533500  4.474040
148  2 -0.5481  4.113270 19.945000 15.459000
149  2 -0.6487  9.523470  3.241790  2.538510
150  2 -0.6582  6.114090  6.853140 14.633800
151  2 -0.4773  6.159650 20.228500  4.761070
152  2 -0.3246  6.742740 20.211200 16.882000
153  2 -0.5557 11.399800  9.814460  4.024260
154  2 -0.5393 10.594700  8.738550 15.280900
155  2 -0.4076 12.534600 19.179200  4.214720
156  2 -0.5677 11.621300 19.587500 16.345800
157  2 -0.6943  0.165861  9.055650  3.247020
158  2 -0.4477 14.072200  8.072710 15.739300
159  2 -0.5104 16.388700 17.810300  3.813440
160  2 -0.5962 15.938000 20.052500 16.655500
161  2 -0.5398  1.944920  9.813860 11.130900
162  2 -0.2125  4.227420 10.231200 23.047600
163  2 -0.4396  3.393950 21.717900  9.938820
164  2 -0.3480 10.746500 13.013600 24.009900
165  2 -0.4730  6.446520 10.654500  8.956710
166  2 -0.4474  7.356240  8.540090 21.588100
167  2 -0.6473  7.166970 20.183000 10.239100
168  2 -0.5890  2.878280 18.399200 22.836500
169  2 -0.5305  8.052590  7.534700  8.000510
170  2 -0.6714 12.102500  9.063140 22.499800
171  2 -0.6709 11.791800 21.232800  9.376420
172  2 -0.5803 12.563800 19.943100 23.093300
173  2 -0.5794 14.600900  9.569960 10.141100
174  2 -0.5361 15.131000  9.464850 23.289900
175  2 -0.5107 -0.162843 20.805400 10.672800
176  2 -0.6004 15.966100 20.720600 23.756700
177  2 -0.4613  0.676223  3.055160  3.179820
178  2 -0.4741  0.723771  3.725820 15.329300
179  2 -0.6845  1.172660 13.686200  3.729900
180  2 -0.4807 -0.634524 13.704200 15.559700
181  2 -0.5218  4.282360  1.876160  2.886250
182  2 -0.4911  4.954010  2.720800 14.290500
183  2 -0.5975  4.625280 15.042600  3.999770
184  2 -0.5489  4.287380 14.151500 15.397600
185  2 -0.3696  6.842650  1.195120  4.791910
186  2 -0.5525  8.898040  1.951140 15.203900
187  2 -0.6257  7.494750 16.623000  3.511340
188  2 -0.6421  8.844750 14.316100 15.325700
189  2 -0.4909 13.659800  2.458100  3.429490
190  2 -0.4057 13.418500  3.084360 14.721100
191  2 -0.4535 13.119800 15.262300  4.049910
192  2 -0.5010 12.834300 13.665100 15.174300
193  2 -0.5760  2.974010 10.390000  5.926880
194  2 -0.4999  0.595912 10.631400 17.926500
195  2 -0.7436  2.007100 23.163800  5.099620
196  2 -0.6743 -0.256673  0.249872 17.393600
197  2 -0.5992  3.410190 12.214500  8.313900
198  2 -0.7017  5.650590 11.373100 16.964400
199  2 -0.5132  5.402640 22.920000  7.329240
200  2 -0.5358  4.958970 22.574300 17.873400
201  2 -0.4503 10.929400 12.855700  5.329910
202  2 -0.7168  9.322290 10.174700 18.492700
203  2 -0.3068 11.725600  2.190340  6.176340
204  2 -0.3652  9.285300 21.989700 17.554100
205  2 -0.5437 15.005600 12.165300  4.685650
206  2 -0.5073 14.441000 10.962300 16.890500
207  2 -0.6136 13.004100 22.282500  4.622860
208  2 -0.6280 13.456300 22.528400 15.924800
209  2 -0.5879  2.542880  1.589590  8.291530
210  2 -0.6452  3.012310  2.057970 18.716400
211  2 -0.5881  7.646980 11.203200  3.999620
212  2 -0.5684  2.889540 12.232600 21.049000
213  2 -0.6017  9.228900 22.893700  7.942950
214  2 -0.4354  5.964930 21.977300 22.506700
215  2 -0.4442  7.106290 12.866900  7.067370
216  2 -0.5616  7.496860 12.278700 21.380200
217  2 -0.4862 13.949000  0.695781  8.828380
218  2 -0.4625 10.231000 -0.283093 20.841300
219  2 -0.5421 11.142500 10.207100  9.814360
220  2 -0.4128 11.175000 12.795900 19.828400
221  2 -0.6612 -0.321462 22.745700  7.494810
222  2 -0.6382 14.910900 23.333500 20.263700
223  2 -0.5217 17.279200 11.529000  8.158750
224  2 -0.5509 13.989500 12.019500 20.509200
225  2 -0.6364  3.278710  5.807650  2.708900
226  2 -0.4826  1.489390  6.149530 13.704700
227  2 -0.4644  2.254940 16.204700  1.476650
228  2 -0.6131  1.991220 16.979600 14.494300
229  2 -0.5472  5.504940  4.597450 22.681800
230  2 -0.6993  5.621200  7.401700 17.921500
231  2 -0.4516  8.131930 18.715100  1.466230
232  2 -0.4899  6.273030 16.790700 15.166800
233  2 -0.4146 12.419100  6.365090  1.043920
234  2 -0.4747 10.956000  5.283520 13.707600
235  2 -0.4976 11.074800 17.155900  2.081210
236  2 -0.6196  9.677700 17.361100 13.993300
237  2 -0.4588 15.472300  5.678790  2.238510
238  2 -0.4619 14.767800  5.524050 13.369600
239  2 -0.4457 15.582500 17.721100  0.492015
240  2 -0.5815 15.599300 16.929100 14.513000
241  2 -0.5197  0.185751  6.772160 10.510100
242  2 -0.5332  1.150630  6.296060  0.157109
243  2 -0.5074  0.514201 17.330200 11.392600
244  2 -0.6155  6.951670 15.704800 23.357200
245  2 -0.5992  4.529270  7.440680 11.276700
246  2 -0.4183  5.212790  8.617330 -0.340836
247  2 -0.6672  4.147310 18.275000 11.325200
248  2 -0.3164  4.653740 18.778800  1.477100
249  2 -0.5806  7.707110  5.867320 12.242100
250  2 -0.6639  9.628000  6.108600 23.048600
251  2 -0.6618  9.021940 17.653000 10.739600
252  2 -0.5601  9.697700 17.651800 23.044700
253  2 -0.7068 10.964500  7.067230 10.383400
254  2 -0.3527 14.908800  6.342080 23.538100
255  2 -0.5136 12.921200 17.904400 10.504900
256  2 -0.1270 12.968800 15.876800 23.881700
257  2 -0.6097  1.730930 10.650400  1.001890
258  2 -0.5022  0.111627  9.910580 14.459800
259  2 -0.6387 16.174100 21.489000  2.535480
260  2 -0.5079  0.626357 22.056700 14.163700
261  2 -0.5789  8.356340  7.469370  2.233340
262  2 -0.6486  4.992910 10.845200 13.425500
263  2 -0.5204  3.398230 21.939700  1.421170
264  2 -0.4775  4.446870 22.220900 13.480900
265  2 -0.4803  8.777740 10.312900 24.368900
266  2 -0.5208  8.334460 10.073500 12.715300
267  2 -0.1658  8.749180 22.252500  3.570510
268  2 -0.6132  9.082960 21.781400 13.806200
269  2 -0.5240 13.113300  9.698970  1.440970
270  2 -0.5649 12.665700 10.990300 13.092900
271  2 -0.5866 12.131500 21.753000  1.533560
272  2 -0.4548 13.325800 21.377200 12.242100
273  2 -0.5797  1.895320  2.619780 11.872800
274  2 -0.6594  2.203270  2.707500 24.146900
275  2 -0.6418  2.482610 12.969600 12.329200
276  2 -0.6120  4.313590 12.583000  1.019820
277  2 -0.4505  7.326270  1.658930 11.594400
278  2 -0.1381  7.302650 22.369100  1.980240
279  2 -0.6095  6.942720 13.139200 11.521600
280  2 -0.6282  7.481570 13.713500  1.532600
281  2 -0.4387 10.630900  1.870620 11.767400
282  2 -0.4248  9.706270  0.413937 24.150800
283  2 -0.4824 10.551900 13.910100 12.093200
284  2 -0.3533 13.475800 13.465500  1.403590
285  2 -0.3790 15.293300  1.266810 12.415300
286  2 -0.5828 13.533400  1.653890 24.121400
287  2 -0.7292 13.914600 14.430200 12.085200
288  2 -0.4078 16.166200 12.768200 24.172800
289  2 -0.7192  2.183830  4.131740  5.823090
290  2 -0.4561  1.222920  5.623310 18.567900
291  2 -0.7318  4.499990 16.675200  7.566600
292  2 -0.5456  2.163750 15.854500 17.646400
293  2 -0.3646  6.521540  5.392640  5.745340
294  2 -0.6915  6.805020  4.262370 16.906700
295  2 -0.5835  7.682550 17.597500  6.981050
296  2 -0.5436  7.172320 16.064000 18.637100
297  2 -0.3412 11.054500  5.783770  4.370820
298  2 -0.5282 11.301700  4.024930 17.544800
299  2 -0.5980 10.646000 16.467100  6.326060
300  2 -0.5357 11.867800 15.128100 17.544100
301  2 -0.4963 14.532000  5.467090  5.915950
302  2 -0.5462 14.885000  5.004380 17.453000
303  2 -0.6299 15.613100 15.581700  6.685120
304  2 -0.4148 15.349200 16.224800 18.852600
305  2 -0.6509  1.067770  7.097960  6.941290
306  2 -0.7280  0.092744  8.610970 20.834700
307  2 -0.4576  1.553030 18.996300  8.007030
308  2 -0.8539  1.097680 19.257200 20.256100
309  2 -0.5747  4.939800  8.096980  7.283250
310  2 -0.4601  3.543180  7.411540 21.207300
311  2 -0.3986  4.801190 19.850200  7.945930
312  2 -0.8278  5.955070 18.833900 20.371300
313  2 -0.3765  9.074170 10.654400  7.017750
314  2 -0.5474  9.490240  7.032800 17.995500
315  2 -0.5925  9.227800 20.118400  5.791840
316  2 -0.5234 10.289700 19.107900 19.958200
317  2 -0.6923 14.174700  9.383230  6.539710
318  2 -0.6302 12.983000  7.932260 18.843900
319  2 -0.6663 14.354100 19.844000  7.060640
320  2 -0.4954 13.966000 19.276600 19.476800

