Generated by pymatgen.io.lammps.data.LammpsData

216  atoms

  2  atom types

0.000000 18.096178  xlo xhi
0.000000 18.140645  ylo yhi
0.000000 18.233787  zlo zhi

Masses

1  208.9804
2   78.9600

Atoms

1    1  0.8202 17.802100 -0.099029 17.515100
2    1  0.6698  0.446854 17.249300  5.409900
3    1  0.7409 17.378500  0.097862 11.659500
4    1  0.7948 17.581800  5.516630 17.993800
5    1  0.7227 18.073300  5.881770  6.057280
6    1  0.7560  0.555243  6.169600 11.736900
7    1  0.8905  0.676011 11.870500 17.933300
8    1  0.8185 18.093900 11.556100  4.866350
9    1  0.7646  0.245560 11.621000 12.397100
10   1  0.6400  5.546200 18.028900 17.256300
11   1  0.7668  6.309840 17.770500  5.871210
12   1  0.7350  5.898310 17.183400 12.007200
13   1  0.7536  5.713890  6.203630 18.008300
14   1  0.8137  6.153790  5.724930  5.569300
15   1  0.8744  6.350080  5.480660 11.747100
16   1  0.8232  6.296910 11.795500 17.227400
17   1  0.6888  6.515440 11.940300  5.900880
18   1  0.8093  6.052140 11.604100 11.628400
19   1  0.8649 12.266900 17.630600 18.103600
20   1  0.8746 11.620200 17.614400  5.620770
21   1  0.7862 11.729000 17.692600 12.181500
22   1  0.7933 11.610700  5.936780 17.949000
23   1  0.7477 11.659100  6.372280  5.115830
24   1  0.7006 11.849400  5.854170 11.824400
25   1  0.6326 12.472600 11.561400 17.639500
26   1  0.8839 12.343000 11.685700  5.543340
27   1  0.8858 12.064300 12.010900 11.768200
28   1  0.8142  0.136730  2.512890  2.433070
29   1  0.8206 17.850500  2.394680  8.276830
30   1  0.9001 -0.223215  2.790800 14.548500
31   1  0.8194 17.715800  8.731200  2.687480
32   1  0.8267 18.100200  9.156460  8.047180
33   1  0.7298  0.075701  8.437460 15.032000
34   1  0.8658 -0.073757 14.780400  2.417490
35   1  0.6779 17.816100 14.959200  8.509570
36   1  0.8449 18.049000 15.275900 14.492600
37   1  0.7964  5.867930  2.863220  3.109620
38   1  0.6810  6.256610  2.827370  8.261650
39   1  0.6548  5.963100  2.400220 14.511800
40   1  0.8831  5.866660  9.011640  2.123500
41   1  0.7684  6.001250  8.801940  8.651600
42   1  0.7235  5.975040  8.859750 14.652900
43   1  0.6777  5.994600 15.104800  2.741480
44   1  0.7666  6.562660 14.586600  8.893850
45   1  0.8699  6.012800 14.538300 14.445500
46   1  0.8243 11.617200  2.513800  2.551410
47   1  0.7726 11.939600  3.122980  8.336180
48   1  0.7238 12.624800  2.491240 14.178600
49   1  0.8166 12.313500  8.894280  2.638710
50   1  0.7195 12.142600  8.713760  8.495580
51   1  0.6781 11.801800  8.622300 15.026800
52   1  0.7434 11.817800 14.653000  2.324830
53   1  0.8958 12.294600 14.843800  8.894590
54   1  0.7666 12.589700 15.110200 15.322700
55   1  0.7318  3.130980 18.162100  2.257000
56   1  0.8387  2.816080 18.162900  8.825670
57   1  0.7142  3.661340 18.048900 14.333900
58   1  0.7647  2.917720  5.938370  2.739310
59   1  0.6829  3.092330  6.335610  8.693490
60   1  0.8194  3.359710  5.322640 14.936200
61   1  0.8479  3.303350 11.711900  1.935900
62   1  0.8023  2.972250 12.382700  8.419400
63   1  0.6902  3.032540 12.374000 14.494400
64   1  0.7150  9.081930 17.682700  2.518190
65   1  0.8715  9.360870 17.356000  9.010800
66   1  0.8127  9.307670 18.275300 14.697800
67   1  0.8078  8.525320  5.832720  2.407180
68   1  0.7422  9.219880  5.789020  9.280210
69   1  0.9024  9.388450  5.240770 14.862200
70   1  0.8183  9.344320 11.743000  1.717420
71   1  0.6613  8.963590 11.862200  8.580050
72   1  0.8558  9.306820 11.688400 14.325600
73   1  0.8082 14.955900 17.443100  3.081350
74   1  0.7607 14.544500 18.215100  9.122450
75   1  0.7050 15.245700 18.324200 14.993300
76   1  0.6564 15.158100  5.390680  2.849550
77   1  0.7620 15.713700  5.462380  9.123350
78   1  0.7619 14.840400  5.718050 15.339200
79   1  0.7731 15.732700 11.681100  2.419490
80   1  0.8373 15.206000 11.663200  9.047230
81   1  0.7207 15.286600 12.227600 15.108000
82   1  0.7160  2.952400  3.177320 18.037800
83   1  0.8868  2.925390  2.958540  5.677250
84   1  0.7789  3.393030  2.470430 11.328900
85   1  0.6927  2.722810  8.929390 17.495700
86   1  0.8024  3.181240  8.715920  5.887170
87   1  0.6742  2.842060  9.091000 11.410600
88   1  0.7360  3.390030 14.698800 17.538400
89   1  0.7103  3.509050 14.847100  5.240600
90   1  0.8005  2.996150 15.168800 10.821600
91   1  0.8457  8.917620  2.351350 17.431700
92   1  0.6698  8.499910  2.997070  5.890980
93   1  0.8597  9.044610  2.464040 12.001300
94   1  0.7142  9.525160  8.798880 17.423600
95   1  0.8390  9.186400  9.070420  5.275480
96   1  0.8365  8.861790  8.282820 12.055900
97   1  0.9028  9.145710 14.826900 17.480400
98   1  0.7229  9.421950 14.822100  5.608840
99   1  0.7875  8.858710 14.246300 11.895100
100  1  0.7352 15.374800  2.451840 -0.078125
101  1  0.8105 14.709900  2.916000  5.366980
102  1  0.6923 14.304600  3.224770 11.002700
103  1  0.7789 14.972400  9.108820 18.250500
104  1  0.7101 14.989800  7.873500  6.019410
105  1  0.8543 14.969000  8.901350 11.681800
106  1  0.7564 15.002100 14.841000 17.789300
107  1  0.7964 15.237200 14.508100  5.434120
108  1  0.7032 14.796800 14.976400 12.470900
109  2 -0.6939  2.293190 18.164800 17.410900
110  2 -0.7084  3.260700 -0.290279  6.131290
111  2 -0.8297  3.019480 17.595900 11.441500
112  2 -0.7864  2.536730  6.077880 -0.491990
113  2 -0.8174  3.537460  5.687030  5.922580
114  2 -0.6871  3.610410  5.420340 12.044000
115  2 -0.9203  3.171320 11.792400 17.380400
116  2 -0.6222  2.713280 11.575700  5.118240
117  2 -0.7500  3.133220 12.121100 11.090300
118  2 -0.7366  9.536490 17.966600 17.850700
119  2 -0.8145  9.102170 -0.455525  5.795220
120  2 -0.8259  9.086340 18.005600 12.040000
121  2 -0.7428  9.059750  5.433610 17.915600
122  2 -0.8104  8.702110  6.403270  5.227560
123  2 -0.8653  8.870470  5.353680 12.188300
124  2 -0.7636  9.425590 12.134400 16.975900
125  2 -0.7728  9.388070 11.602300  5.310960
126  2 -0.8238  9.351700 11.417800 11.810700
127  2 -0.8542 14.934800 17.699100 -0.182626
128  2 -0.6848 14.262400 17.638300  5.580960
129  2 -0.8537 14.422600 17.897600 11.863400
130  2 -0.8145 14.751300  5.518730 17.932900
131  2 -0.8451 15.268200  5.336270  6.300750
132  2 -0.6969 15.009900  5.843730 11.994800
133  2 -0.8063 15.909700 12.053100 17.771300
134  2 -0.7279 14.871500 11.734200  5.471130
135  2 -0.7333 14.930100 11.720100 11.741500
136  2 -0.8180  3.030480  2.923430  2.861260
137  2 -0.7892  2.350030  2.467480  8.257300
138  2 -0.7137  3.017180  2.798740 14.101400
139  2 -0.6906  2.687320  9.063420  2.678370
140  2 -0.8137  2.899490  9.446000  8.417740
141  2 -0.7908  2.819000  8.593630 14.259600
142  2 -0.7325  2.746380 14.419400  2.140430
143  2 -0.7351  3.629280 15.126700  8.142650
144  2 -0.7308  3.179760 15.258400 14.222600
145  2 -0.7403  8.570440  2.639430  2.770880
146  2 -0.6698  9.243620  2.015120  8.974710
147  2 -0.8115  9.798710  2.860200 15.003100
148  2 -0.6764  8.933330  9.010480  2.377360
149  2 -0.7362  9.029940  8.432850  8.937330
150  2 -0.8425  9.000580  8.327540 14.575800
151  2 -0.7844  8.736690 14.603900  2.120760
152  2 -0.8361  9.587810 14.675500  8.746940
153  2 -0.6374  8.981890 14.821400 14.610200
154  2 -0.7729 15.170700  2.200520  2.521690
155  2 -0.8357 14.977900  2.545920  8.189550
156  2 -0.7821 15.523400  2.584550 13.509800
157  2 -0.9170 15.243900  9.111730  2.499020
158  2 -0.7698 15.249800  8.267800  8.844660
159  2 -0.6892 14.896300  8.648900 15.170400
160  2 -0.8389 15.210500 14.587400  2.789690
161  2 -0.7365 15.265900 14.354400  8.899480
162  2 -0.9104 15.394500 15.309600 15.115600
163  2 -0.7651  0.351786 17.471900  2.378850
164  2 -0.8272 18.003800 17.977700  8.701100
165  2 -0.7436 18.113600  0.162290 14.253100
166  2 -0.8018 17.981300  5.271960  2.442000
167  2 -0.8226  0.154997  6.314960  8.818480
168  2 -0.7154  0.000259  5.250480 15.136000
169  2 -0.7787  0.638312 11.994700  2.297990
170  2 -0.7283 17.933900 11.585400  8.368210
171  2 -0.7642 18.257000 11.970000 14.961800
172  2 -0.8138  5.750810 -0.202240  2.395360
173  2 -0.6841  6.401510 17.225700  8.620070
174  2 -0.8806  6.421630 17.359600 14.626400
175  2 -0.8392  5.727590  6.240100  2.350440
176  2 -0.7974  6.090740  6.052910  8.694660
177  2 -0.7068  6.081750  5.252310 14.821800
178  2 -0.7270  6.331240 11.534700  1.623380
179  2 -0.8546  5.989000 11.509400  8.995350
180  2 -0.8548  6.379430 11.817700 14.547200
181  2 -0.8025 12.152500 17.779600  2.638010
182  2 -0.7538 12.047000 17.476900  8.479670
183  2 -0.8240 12.155300 17.805400 15.034100
184  2 -0.7623 11.817300  5.290290  2.490690
185  2 -0.8115 11.654800  6.122310  8.321430
186  2 -0.7889 11.954500  5.231780 14.583200
187  2 -0.7567 11.947100 11.503300  2.716260
188  2 -0.7409 12.279200 12.287000  8.735760
189  2 -0.7475 12.133400 12.283900 14.485100
190  2 -0.8566 17.958000  2.678190 -0.551819
191  2 -0.6981 18.074800  2.647650  5.220220
192  2 -0.5921  0.379999  3.077460 11.457000
193  2 -0.7565 18.057600  9.000860 18.024300
194  2 -0.8560 -0.028495  8.634570  5.353520
195  2 -0.7422 17.648100  8.778000 11.773600
196  2 -0.6376  0.227207 15.048300 17.643200
197  2 -0.7990  0.256657 14.421700  5.199280
198  2 -0.7208 18.174500 14.389300 12.089000
199  2 -0.7779  5.753660  2.794860 17.486700
200  2 -0.9269  5.671770  3.062190  5.591000
201  2 -0.8074  6.413550  2.574820 11.370900
202  2 -0.8041  6.556940  8.818790 17.898900
203  2 -0.6921  5.891780  9.146430  5.082350
204  2 -0.7521  6.234200  8.360430 11.846100
205  2 -0.7514  6.287970 14.741300 17.139200
206  2 -0.8203  6.508540 14.764600  5.772150
207  2 -0.8704  6.051770 14.364000 11.770500
208  2 -0.5988 11.693000  2.537380 17.833400
209  2 -0.7258 11.605400  2.821970  5.506020
210  2 -0.8151 11.601300  2.948090 11.123200
211  2 -0.9471 12.170400  8.754240 18.117600
212  2 -0.8755 12.218200  8.828250  5.323400
213  2 -0.7270 12.243900  9.202990 12.140700
214  2 -0.8984 11.931100 14.833600 17.984700
215  2 -0.7074 12.379500 14.658000  5.647410
216  2 -0.7527 11.758200 14.739100 11.895900

