Generated by pymatgen.io.lammps.data.LammpsData

360  atoms

  2  atom types

0.000000 16.677463  xlo xhi
0.000000 21.699897  ylo yhi
0.000000 28.493178  zlo zhi

Masses

1  208.9804
2   78.9600

Atoms

1    1  0.7449  1.810020 12.932600 19.745200
2    1  0.7662  3.293690 16.910400 20.699200
3    1  0.7815  1.462560  5.603940 20.503300
4    1  0.7609  4.085590  9.273130 20.967100
5    1  0.8923  5.479590 13.402700 20.409300
6    1  0.8724  7.619660 17.438400 20.407900
7    1  0.6615  1.338240 20.601600 19.885800
8    1  0.8365  3.686620  2.863290 21.131600
9    1  0.7211  5.708330  6.218690 20.777600
10   1  0.7493  7.888810  9.893710 20.442400
11   1  0.7560 10.045500 13.644400 20.484000
12   1  0.7659 12.086700 17.041800 20.145100
13   1  0.9305  5.923770 20.895800 21.085600
14   1  0.7994  7.790440  3.152630 20.954300
15   1  0.7689 10.246200  6.456450 20.361400
16   1  0.7309 11.953300  9.618520 20.030900
17   1  0.7025 14.010300 13.668200 20.177700
18   1  0.6504 15.908200 16.994100 19.888300
19   1  0.8929 10.310000 20.726000 20.590200
20   1  0.7812 11.929600  2.881970 20.965600
21   1  0.8105 13.884900  6.172990 20.267900
22   1  0.7219 16.276500  9.312490 19.945600
23   1  0.7503 14.075300 20.759400 20.595400
24   1  0.7763 15.805900  2.409240 20.804900
25   1  0.8281  0.965194 13.179600 26.362700
26   1  0.8034  3.450100 16.828100 25.876400
27   1  0.8590  1.005360  6.163790 26.603400
28   1  0.7067  3.142650  9.504590 26.402500
29   1  0.8555  4.919110 13.452300 26.646100
30   1  0.7439  8.069200 17.029800 26.273300
31   1  0.7283  1.559760 20.228300 26.647300
32   1  0.7786  4.342520  2.196870 28.017700
33   1  0.8801  5.716870  6.821160 26.574200
34   1  0.8562  6.991810 10.182400 26.056300
35   1  0.8098  9.787440 13.860700 25.673500
36   1  0.7852 11.977100 17.069200 25.933100
37   1  0.8419  5.860540 20.249200 26.377300
38   1  0.8537  7.937820  2.423800 26.394900
39   1  0.8466  9.586550  6.599940 26.616200
40   1  0.8093 11.722700 10.123000 26.049900
41   1  0.6891 13.464700 14.381400 26.262100
42   1  0.7869 16.176400 17.236200 25.976800
43   1  0.8736  9.795750 20.714400 26.277700
44   1  0.8534 11.947900  2.796420 25.069000
45   1  0.8655 13.970000  6.272170 25.985900
46   1  0.8273 15.702700 10.208200 26.461800
47   1  0.8946 14.266000 20.507100 26.636900
48   1  0.8540 15.864500  2.588640 26.081400
49   1  0.8015  1.235180 15.432900  1.453830
50   1  0.7873  3.313800 18.786200  1.245340
51   1  0.7635  0.654171  8.414870  1.043820
52   1  0.7633  2.836150 11.645000  1.158000
53   1  0.8683  4.754660 15.402000  1.713760
54   1  0.7577  7.989050 19.197200  1.025130
55   1  0.7294  1.463270  1.045660  0.692817
56   1  0.8967  3.337490  5.175340  1.307780
57   1  0.7309  5.005900  9.045030  1.060270
58   1  0.8211  7.623810 11.879600  1.271300
59   1  0.8270  9.204960 15.521700  1.066650
60   1  0.7780 12.127100 19.959600  1.280700
61   1  0.7793  5.662890  1.086010  3.405930
62   1  0.7945  7.317420  5.379140  1.767960
63   1  0.7253 10.222500  9.424280  1.227980
64   1  0.7840 12.386800 12.433100  1.291790
65   1  0.7958 13.735800 16.199200  1.410550
66   1  0.7455 15.781200 19.448200  1.278290
67   1  0.8003  9.987620  1.137170  1.147040
68   1  0.7445 12.139400  4.718250  1.248810
69   1  0.7787 13.710900  8.621010  0.748310
70   1  0.7625 16.025700 12.522300  1.092280
71   1  0.7393 14.004800  1.607100  1.143290
72   1  0.7386 15.929100  4.468810  1.596540
73   1  0.7400  1.015650 15.803500  7.617690
74   1  0.8187  3.953140 19.499100  7.227100
75   1  0.8052  1.849700  8.369650  6.902460
76   1  0.7834  2.509650 12.167600  7.011910
77   1  0.8771  5.996190 16.462900  7.656580
78   1  0.8138  7.612800 19.476100  4.985540
79   1  0.8606  1.256080  1.319240  7.391160
80   1  0.7805  3.576370  4.714710  7.054380
81   1  0.8655  5.825970  8.083800  6.656940
82   1  0.7218  7.810980 12.115100  7.106810
83   1  0.8291  9.672670 16.195800  7.077510
84   1  0.8045 11.185600 19.750200  8.154090
85   1  0.6596  5.929490  0.868425  7.767920
86   1  0.8092  8.530160  4.867530  7.554670
87   1  0.7862  9.891540  8.640760  6.725920
88   1  0.7094 11.938700 11.989200  7.524360
89   1  0.7695 13.727000 16.352500  7.388390
90   1  0.7784 16.323400 19.375500  7.792090
91   1  0.7202  9.110270  1.085050  5.976550
92   1  0.6363 12.893200  4.428160  7.695790
93   1  0.8013 14.236400  8.412060  7.458010
94   1  0.7771 15.725800 12.359300  7.732630
95   1  0.8113 14.343000  0.914529  7.075480
96   1  0.7389 16.219100  4.904000  6.815070
97   1  0.8748 16.090600 14.309500 11.338400
98   1  0.8568  2.206130 18.405900 11.516200
99   1  0.7982 16.661500  7.308020 10.995200
100  1  0.8384  1.832290 11.052700 11.057200
101  1  0.8033  3.591040 14.631100 11.053100
102  1  0.9322  5.781330 18.431400 11.813500
103  1  0.7869  0.086211  0.102255 10.946100
104  1  0.7024  1.740250  3.878480 10.598900
105  1  0.7822  3.569460  7.771740 10.060300
106  1  0.7263  6.263510 11.761300 10.301900
107  1  0.8238  7.838460 14.039500 13.370200
108  1  0.7865  9.778000 19.603500 13.753300
109  1  0.8555  3.650500  0.441330 11.110000
110  1  0.7638  6.204450  3.930190 10.915500
111  1  0.8724  8.720700  7.874140 11.061300
112  1  0.6020 10.919400 11.319600 10.783300
113  1  0.7685 12.119100 14.822000 11.122100
114  1  0.8094 13.077500 18.503100 11.476400
115  1  0.7605  8.860500 21.699000 10.436400
116  1  0.7930 10.625900  3.843440 10.964600
117  1  0.7520 12.645100  7.645970 10.898400
118  1  0.7234 14.580700 10.955800 10.846800
119  1  0.8063 13.297100  0.617010 11.352300
120  1  0.7773 14.855000  3.852130 10.970000
121  1  0.8086 16.311900 14.626400 17.178500
122  1  0.6078  1.439590 17.835900 17.365400
123  1  0.7599  0.090089  7.167950 17.043100
124  1  0.8466  1.809600 11.145800 16.694600
125  1  0.7675  3.794600 14.615800 17.326600
126  1  0.7799  5.086460 18.288400 17.870400
127  1  0.7398  0.168737  0.917474 17.230200
128  1  0.8944  2.678920  4.569920 14.562200
129  1  0.7847  4.294550  6.925570 17.198300
130  1  0.8416  5.839320 11.074200 16.414500
131  1  0.7297  8.403850 14.572200 17.542600
132  1  0.7678  9.446980 18.594800 17.099300
133  1  0.6701  3.460490  0.292872 17.760700
134  1  0.6640  6.302730  3.702150 17.030600
135  1  0.7947  8.192610  7.094610 16.561100
136  1  0.7109 10.486800 10.373000 17.226100
137  1  0.8671 11.855600 14.553700 16.676900
138  1  0.8398 15.210200 19.191600 15.003400
139  1  0.7984  7.901320  0.379083 17.353900
140  1  0.8262 10.181200  3.646930 17.011300
141  1  0.8684 12.438600  6.726180 16.500500
142  1  0.8749 14.023400 11.060200 16.643800
143  1  0.7809 13.190800 21.257200 16.682500
144  1  0.8794 14.358800  3.658890 17.589400
145  2 -0.8667 16.143200 14.998100 27.941400
146  2 -0.8885  1.470300 17.812800 27.814500
147  2 -0.9128 15.444500  7.090850 27.931200
148  2 -1.0455  1.031120 11.077500 27.900100
149  2 -0.8428  3.042360 14.638100 27.941500
150  2 -0.7830  5.971710 18.109000 27.832000
151  2 -0.9214 15.913500  0.104403 27.802900
152  2 -0.7223  1.424330  3.965830 28.261400
153  2 -0.8586  3.226550  7.075780 28.077000
154  2 -0.9004  5.545840 11.482800 27.931700
155  2 -0.6901  6.852870 14.738900 28.109500
156  2 -0.7730 10.349800 18.097000 27.902100
157  2 -0.7621  4.090440 21.309900 28.320400
158  2 -0.6929  6.003290  4.174710 27.897900
159  2 -0.8071  7.472490  8.057470 28.048500
160  2 -0.7457  9.456790 11.785000 27.261900
161  2 -0.8230 11.292600 14.714800 28.398900
162  2 -0.9113 13.854000 18.438200 27.964500
163  2 -0.7849  7.895100 21.603000 27.923800
164  2 -0.6491  9.884600  3.638660 28.082300
165  2 -0.8442 11.584700  7.554500 27.984000
166  2 -0.9001 13.728800 11.312400 27.524700
167  2 -0.7627 12.468000  0.470580 27.781300
168  2 -0.8171 13.826300  3.882760 27.283800
169  2 -0.3305  1.811280 15.448800 24.507000
170  2 -0.2977  2.935600 19.366200 24.368100
171  2 -0.4210  1.398050  8.372060 24.914300
172  2 -0.2734  3.209160 12.125000 24.486500
173  2 -0.3161  5.212290 15.397200 24.252000
174  2 -0.4692  7.807900 19.518200 24.758500
175  2 -0.3803  2.255150  2.085550 26.327700
176  2 -0.1637  3.295190  4.406820 25.466200
177  2 -0.4977  5.378580  8.653700 24.774800
178  2 -0.3401  7.525650 12.471000 24.502300
179  2 -0.5364 10.068900 16.161100 24.525700
180  2 -0.3305 11.975000 19.564000 24.617300
181  2 -0.2911  5.104920  0.765198 24.933200
182  2 -0.4166  7.508120  6.007610 25.227700
183  2 -0.3183  9.061950  8.996290 24.590500
184  2 -0.3563 12.765100 12.573500 24.776500
185  2 -0.3663 13.817600 15.912700 24.052700
186  2 -0.3555 16.109300 19.268300 24.541000
187  2 -0.5555  9.788220  1.161280 25.193500
188  2 -0.3840 11.546500  5.412050 24.460300
189  2 -0.3477 13.939800  8.944060 24.758400
190  2 -0.2289 16.146100 12.044800 24.451700
191  2 -0.3863 14.248400  0.807676 24.571900
192  2 -0.4166 16.075000  4.859570 24.721000
193  2 -0.2671 16.059500 14.239600 22.020500
194  2 -0.4530  1.336720 18.367900 21.626600
195  2 -0.2977 16.461700  7.354510 22.230300
196  2 -0.3350  1.530200 10.580600 21.751400
197  2 -0.3706  3.419690 14.222700 21.908800
198  2 -0.3881  5.788450 18.926200 22.527400
199  2 -0.2880  0.012237  0.304598 22.432400
200  2 -0.3602  1.417900  3.341400 22.300900
201  2 -0.3023  3.946190  6.648400 22.908600
202  2 -0.3533  5.420430 11.102100 22.275800
203  2 -0.4367  7.740010 14.930700 21.547800
204  2 -0.3683  9.925590 18.354300 21.976100
205  2 -0.2395  3.109070  0.084595 22.117100
206  2 -0.3560  5.910550  3.728180 22.913600
207  2 -0.5243  7.901680  7.512560 21.646400
208  2 -0.3665 10.765000 10.785500 21.984400
209  2 -0.4602 12.137300 14.580700 21.953700
210  2 -0.2486 14.115800 18.579600 22.613500
211  2 -0.3508  8.642480  0.906974 22.222800
212  2 -0.3903  9.598910  3.702440 22.695300
213  2 -0.3983 11.961900  7.697920 22.000000
214  2 -0.3465 14.197400 10.567900 21.340100
215  2 -0.4249 12.228900  0.031049 22.259300
216  2 -0.5434 13.627700  4.337520 22.221300
217  2 -0.8577  1.245990 12.941400  9.350320
218  2 -0.6755  4.267320 17.165000  9.784120
219  2 -0.9464  1.878730  6.168150  9.084890
220  2 -0.7342  4.090680  9.708340  8.059070
221  2 -0.6079  5.030970 13.722000  8.556400
222  2 -0.4684  8.151100 17.640900  8.608290
223  2 -0.7826  1.966590 20.203200  9.424800
224  2 -0.8305  3.393140  2.031730  8.783220
225  2 -0.6449  6.495970  6.138480  8.938130
226  2 -0.6998  7.862410  9.243510  8.314620
227  2 -0.6279  9.947990 14.037100  9.215170
228  2 -0.6417 11.607200 17.288100  9.072160
229  2 -0.6027  5.401540 20.236100  9.749650
230  2 -0.7410  9.328890  2.668940  8.740270
231  2 -0.7467 10.082500  6.470520  9.165340
232  2 -0.9317 12.353900  9.766080  8.679640
233  2 -0.8846 14.337700 13.676400  9.528740
234  2 -0.7673 16.136400 16.930400  9.161120
235  2 -0.6869 10.838100 19.940100 10.780600
236  2 -0.7384 12.481600  2.036300  9.414040
237  2 -0.9026 14.530800  6.349500  9.411400
238  2 -0.8023  0.112313  9.954880  8.768630
239  2 -0.8123 14.734600 21.070500  9.456270
240  2 -0.8935 16.223300  2.623800  9.051270
241  2 -0.3788 15.315300 14.705300  5.833870
242  2 -0.3816  1.683190 18.423300  6.031340
243  2 -0.4214 16.431200  7.333210  5.597250
244  2 -0.2431  1.123790 10.606600  5.135650
245  2 -0.2873  3.199330 14.916700  5.784260
246  2 -0.5006  5.444290 18.087900  5.605750
247  2 -0.3389 16.324900  0.156522  5.581460
248  2 -0.4284  1.573000  3.530050  5.743620
249  2 -0.4241  3.955770  6.733030  5.427950
250  2 -0.2853  5.584860 11.589500  5.617340
251  2 -0.3350  7.213460 14.939900  5.558390
252  2 -0.4340 10.177600 18.952000  5.461320
253  2 -0.4014  3.525340  0.260003  5.825860
254  2 -0.5526  5.971700  2.974580  5.702640
255  2 -0.4009  7.558310  6.388450  5.444380
256  2 -0.4077 10.021700 11.392800  5.463650
257  2 -0.3304 11.897700 14.614700  5.607830
258  2 -0.3695 13.590000 18.927100  6.113420
259  2 -0.7447  7.876190 20.681900  7.249410
260  2 -0.2647 10.165300  4.166280  5.087760
261  2 -0.2740 12.327800  7.351770  5.387910
262  2 -0.3063 14.156900 10.934600  5.901240
263  2 -0.3239 11.752900  0.468149  5.455290
264  2 -0.3495 14.154900  3.197950  5.195580
265  2 -0.4131  1.285570 12.880100  3.051480
266  2 -0.3797  3.131470 16.719300  3.243110
267  2 -0.3878  1.377770  6.135090  2.719320
268  2 -0.4133  2.664840  9.238040  2.664790
269  2 -0.4358  4.796430 12.857100  2.438720
270  2 -0.4177  6.828030 16.882600  2.763710
271  2 -0.3467  1.209520 20.728100  2.780240
272  2 -0.4224  3.216030  2.671240  2.724580
273  2 -0.4803  4.953800  6.844440  2.471790
274  2 -0.4375  7.855110  9.850900  2.903960
275  2 -0.3786  9.566330 13.244300  2.694790
276  2 -0.3598 11.104400 17.088000  2.668820
277  2 -0.5021  5.288710 20.150500  2.934590
278  2 -0.5568  8.051270  2.574880  2.339070
279  2 -0.2727 10.225800  6.362670  2.888560
280  2 -0.3884 11.779100 10.285300  2.846450
281  2 -0.3107 14.033300 13.789600  3.032590
282  2 -0.4521 15.721400 16.876600  2.855900
283  2 -0.6297  9.539430 20.896600  2.635420
284  2 -0.2605 12.168200  2.447180  3.445220
285  2 -0.3885 13.774200  6.595950  2.678540
286  2 -0.4395 15.196200 10.536500  2.269800
287  2 -0.4331 13.967800 21.256500  2.757790
288  2 -0.3666 16.057600  2.377970  3.081150
289  2 -0.9930  1.314360 15.511000 18.988200
290  2 -0.8267  4.012550 19.891300 19.590600
291  2 -0.7269  2.536170  8.783970 18.421800
292  2 -0.8351  4.088690 12.208800 18.492900
293  2 -0.8379  5.706930 16.162200 18.976400
294  2 -0.7735  7.746510 19.888000 19.111300
295  2 -0.7674  1.561270  2.053390 19.146000
296  2 -0.9225  3.772850  5.330650 19.216500
297  2 -0.7580  6.077650  8.754470 18.436300
298  2 -0.7770  7.643910 12.384700 19.260600
299  2 -0.8197  9.809870 16.607000 18.744000
300  2 -0.7042 12.153800 19.589700 18.766700
301  2 -0.8001  5.953850  1.456610 19.688500
302  2 -0.8808  8.414640  4.881340 18.495300
303  2 -0.8902 10.654900  7.898390 18.040300
304  2 -0.8831 11.915400 12.582000 18.440900
305  2 -0.6508 13.530900 16.163400 17.618800
306  2 -0.8436 15.853900 19.447400 18.130400
307  2 -0.6896 10.215500  1.433690 19.383600
308  2 -0.8728 12.181400  4.694400 18.625900
309  2 -0.8021 14.144400  8.639540 18.157700
310  2 -0.8325 16.283800 12.001700 17.979000
311  2 -0.8614 14.387300  1.262020 18.606900
312  2 -0.8706 15.777400  5.040330 19.393800
313  2 -0.3280  1.210240 13.558400 15.204900
314  2 -0.4060  3.496410 17.070200 15.589700
315  2 -0.3948  2.233770  7.156130 15.213200
316  2 -0.2955  3.800960 10.294200 14.956200
317  2 -0.5139  5.799080 14.057900 15.755700
318  2 -0.3817  7.067070 17.476200 15.486500
319  2 -0.4555  0.741497 21.222500 15.031700
320  2 -0.3911  4.522330  2.633050 14.974500
321  2 -0.4289  5.768250  5.717590 15.102800
322  2 -0.3166  7.615840  9.161920 14.928500
323  2 -0.5776  9.520930 12.583100 15.822600
324  2 -0.4440 10.331400 16.174700 14.826800
325  2 -0.4637  5.616120 20.847500 16.414800
326  2 -0.2641  8.399050  2.801520 14.737300
327  2 -0.3937 10.123400  5.762340 15.028900
328  2 -0.3048 12.257400  9.463590 14.923300
329  2 -0.3884 13.927400 13.466600 15.605000
330  2 -0.4052 16.140500 16.694000 15.389900
331  2 -0.5927 10.125000 21.256400 16.090700
332  2 -0.3119 12.913200  2.015230 15.214300
333  2 -0.3866 15.024200  6.006670 15.560500
334  2 -0.3170 16.294900  9.870510 15.505400
335  2 -0.5910 12.587700 19.421900 13.937800
336  2 -0.4278 16.635400  3.237250 15.965800
337  2 -0.4579  1.570630 15.821100 12.315300
338  2 -0.4159  3.643370 19.787300 13.021700
339  2 -0.3486  2.243730  8.823230 12.428000
340  2 -0.4242  3.801240 12.254400 12.544800
341  2 -0.3571  5.099570 16.054500 12.928600
342  2 -0.2905  7.044530 20.677900 13.120700
343  2 -0.5106  2.079690  1.863320 12.582000
344  2 -0.4175  3.894290  5.663840 12.692800
345  2 -0.3386  5.729220  8.638340 11.372400
346  2 -0.5087  8.382300 11.136600 11.977200
347  2 -0.4129  7.513640 14.368100 10.616100
348  2 -0.2907  8.929350 16.969300 11.810400
349  2 -0.4630  6.299950  1.191910 11.588000
350  2 -0.3880  8.073060  5.016460 12.117200
351  2 -0.3155 10.479200  8.653080 13.007700
352  2 -0.3965 12.782100 12.570900 12.761600
353  2 -0.3407 13.716100 16.106600 12.996900
354  2 -0.5383 15.715800 19.536500 12.288600
355  2 -0.3675 10.535100  1.629820 12.873900
356  2 -0.3875 12.646200  5.213450 12.599600
357  2 -0.4473 14.649000  8.734170 12.323800
358  2 -0.4458 16.399100 11.863300 12.423100
359  2 -0.4318 15.082400  1.521810 12.924700
360  2 -0.4305  0.036737  5.094490 12.777200

