Generated by pymatgen.io.lammps.data.LammpsData

320  atoms

  2  atom types

0.000000 24.637781  xlo xhi
0.000000 17.058433  ylo yhi
0.000000 27.370788  zlo zhi

Masses

1  208.9804
2   78.9600

Atoms

1    1  0.7159 21.455500 18.365400  0.386995
2    1  0.7536 -1.749480 18.080800 14.026900
3    1  0.7627 21.449400  9.609690  0.460709
4    1  0.7677 -1.690870  9.633030 14.387900
5    1  0.7589  9.451160 18.579200  0.708090
6    1  0.7348 10.441800  1.185530 14.336200
7    1  0.7425  9.549480  9.918690  0.651672
8    1  0.6973 10.698200  9.777180 14.366600
9    1  0.7922  4.267400  5.740090 10.506500
10   1  0.7642  3.238480  5.475960 24.154800
11   1  0.8146  4.124250 13.951900 10.401900
12   1  0.7867  3.410560 14.101100 24.031800
13   1  0.8118 16.359200  5.462560 10.220000
14   1  0.7874 15.376200  5.674250 23.870500
15   1  0.8307 16.499600 13.836800 10.176600
16   1  0.7926 15.727100 13.924800 23.965300
17   1  0.7329  4.337160  5.548220  6.279570
18   1  0.7464  3.086560  5.332250 19.802200
19   1  0.7439  4.380850 14.323700  6.255160
20   1  0.7399  3.033710 14.042600 19.792800
21   1  0.7483 16.557500  5.474710  5.983400
22   1  0.7269 15.147000  5.505220 19.704300
23   1  0.7336 16.798500 14.291300  6.131770
24   1  0.7590 15.167000 14.073200 19.611100
25   1  0.7885 -2.070230 18.255300  9.948640
26   1  0.7657 21.787000 18.251300 23.537200
27   1  0.7638 -2.034680  9.886610 10.115300
28   1  0.7922 21.678300  9.766770 23.772600
29   1  0.7741 10.309600  1.400650 10.322900
30   1  0.8027  9.376860 18.117600 23.876300
31   1  0.7402 10.588800  9.740770 10.145900
32   1  0.7509  9.104390  9.911110 24.039400
33   1  0.7122 21.384000  5.318450  0.607240
34   1  0.7225 -1.647170  5.342060 14.323000
35   1  0.6915 21.603900 13.907800  0.492191
36   1  0.7113 -1.869000 14.102500 13.993900
37   1  0.7404  9.398910  5.602150  0.704249
38   1  0.7203 10.634400  5.544460 14.386800
39   1  0.7374  9.296710 14.195100  0.690370
40   1  0.7808 10.638600 14.002900 14.390400
41   1  0.7159 -1.954490  5.388770 10.348800
42   1  0.7760 21.673600  5.444800 23.737500
43   1  0.7273 -1.944800 13.898000  9.957880
44   1  0.7851 21.895500 13.983900 23.800000
45   1  0.7801 10.329100  5.497860 10.148200
46   1  0.7957  9.371510  5.695210 24.057800
47   1  0.7816 10.477800 14.068600 10.187900
48   1  0.7525  9.644310 14.171000 24.121100
49   1  0.6836  4.370320  1.525570  6.212310
50   1  0.7242  3.157840 18.430600 20.021700
51   1  0.7140  4.611490  9.701780  6.222140
52   1  0.7062  2.998440  9.703340 19.935600
53   1  0.7187 16.755500  1.285560  6.299260
54   1  0.7108 15.307800 18.429500 19.840400
55   1  0.7282 16.538600  9.739140  6.169510
56   1  0.7594 15.388500 10.005400 19.963600
57   1  0.7841  4.158670  1.252350 10.480600
58   1  0.7749  3.454150 18.362400 23.916300
59   1  0.8031  4.164580  9.783710 10.191700
60   1  0.7765  3.390440  9.765670 23.947400
61   1  0.7880 16.594300  1.065410 10.305300
62   1  0.7750 15.695000 18.433900 23.815100
63   1  0.7979 16.430400  9.538930 10.165900
64   1  0.7516 15.478900  9.748790 23.802000
65   1  0.8257  0.124023  7.566380 25.785800
66   1  0.7895  1.001450  7.546430 12.285700
67   1  0.8136 -0.123308 16.054900 26.217500
68   1  0.8134  1.149710 15.912100 12.033000
69   1  0.8125 12.353200  7.630630 26.110500
70   1  0.7835 13.229200  7.661800 12.050500
71   1  0.8038 12.563700 16.264300 26.186500
72   1  0.8613 13.187900 16.111100 11.941900
73   1  0.8187  6.555050  7.567300 25.983500
74   1  0.7955  7.498190  7.779420 12.519100
75   1  0.7988  6.584330 15.996300 25.889200
76   1  0.7822  7.518190 15.830800 12.559100
77   1  0.8261 18.853600  7.668090 25.597900
78   1  0.7668 19.631800  7.455400 12.295300
79   1  0.8084 18.680200 16.229800 25.624700
80   1  0.7751 19.702800 15.975000 12.231000
81   1  0.7851 -0.094365  3.235270 26.076100
82   1  0.8185  0.864536  3.313460 11.889000
83   1  0.7825 -0.063336 11.790400 25.792200
84   1  0.8317  0.822196 11.919400 12.077000
85   1  0.7978 12.565700  3.301720 26.175600
86   1  0.7995 13.006200  3.482970 11.879900
87   1  0.8004 12.350200 12.077400 25.999400
88   1  0.8056 13.246900 11.868200 12.006400
89   1  0.8278  6.486620  3.336180 25.908000
90   1  0.7578  7.504870  3.466670 12.906000
91   1  0.7889  6.338880 11.877700 25.887900
92   1  0.7246  7.683660 11.934100 12.440700
93   1  0.8287 18.622900  3.411130 25.718400
94   1  0.7888 19.642300  3.093520 12.244200
95   1  0.7774 18.950700 11.717400 25.663900
96   1  0.8019 19.798500 11.930500 12.735900
97   1  0.8064  0.987315  7.634810  8.168930
98   1  0.8215  0.331150  7.547070 21.880000
99   1  0.7944  1.130570 16.140000  8.046800
100  1  0.8381  0.408844 16.153000 22.041100
101  1  0.8119 13.805400  7.670240  8.094790
102  1  0.8078 12.492000  7.633160 22.037000
103  1  0.8089 13.591600 16.271900  7.900710
104  1  0.8218 12.795500 16.059100 22.189300
105  1  0.8282  7.035960  7.840920  8.370860
106  1  0.7567  6.021290  7.630350 21.856400
107  1  0.8035  7.013040 16.445800  8.526530
108  1  0.8112  6.136850 16.153200 21.699500
109  1  0.8223 19.377900  7.629990  8.292240
110  1  0.7933 18.130900  7.550030 21.572800
111  1  0.7852 19.385600 16.140200  8.355350
112  1  0.7844 18.406900 16.219800 21.422200
113  1  0.8024  1.365370  3.637980  7.976390
114  1  0.7950  0.090908  3.242570 22.185400
115  1  0.7962  1.248040 11.850500  7.856150
116  1  0.8050  0.435203 12.056500 22.033400
117  1  0.8137 13.206100  3.235320  8.019060
118  1  0.8324 12.655800  3.301830 21.954400
119  1  0.8012 13.565300 11.843400  7.913920
120  1  0.7963 12.659200 11.970300 22.095300
121  1  0.8167  7.110400  3.406950  8.588970
122  1  0.7779  6.114710  3.341330 22.011500
123  1  0.7987  7.235790 12.017900  8.436440
124  1  0.7881  6.063160 11.892900 21.703100
125  1  0.8140 19.417100  3.316240  8.462600
126  1  0.7743 18.414700  3.233830 21.614900
127  1  0.8046 19.380700 11.838700  8.024140
128  1  0.7605 18.296200 11.805700 21.589000
129  2 -0.7590  7.299870  5.765930 10.406200
130  2 -0.8241  6.490800  5.477230 24.029600
131  2 -0.7981  7.286860 14.096000 10.333500
132  2 -0.7939  6.407330 14.149700 23.685500
133  2 -0.8145 19.226400  5.416050 10.326100
134  2 -0.7733 18.440400  5.430570 23.491100
135  2 -0.7806 19.397800 13.754600 10.336000
136  2 -0.7717 18.666700 14.138000 23.590500
137  2 -0.8248  1.200080  5.405400 10.032100
138  2 -0.8149  0.066258  5.493810 24.055900
139  2 -0.8153  1.268880 13.848400  9.974330
140  2 -0.8032  0.226794 14.107000 24.103200
141  2 -0.8305 13.444600  5.434100  9.982220
142  2 -0.7807 12.229500  5.325720 24.085300
143  2 -0.7873 13.455500 14.235800 10.027800
144  2 -0.8496 12.848200 14.129800 24.060400
145  2 -0.0834 20.162900  3.655190  3.736660
146  2 -0.0561 -0.498287  3.241190 17.550000
147  2 -0.1065 20.045600 11.828100  3.555290
148  2 -0.0860 -0.628889 11.866300 17.320900
149  2 -0.0660  7.915710  3.742150  3.966910
150  2 -0.1177 11.820500  3.182840 17.278100
151  2 -0.1070  7.855930 12.213400  3.743760
152  2 -0.1124 11.872800 12.111000 17.141400
153  2 -0.1232 20.188000  7.450400  3.438180
154  2 -0.0903 -0.384682  7.442790 17.439400
155  2 -0.0825 20.181000 16.425400  3.640200
156  2 -0.0912 -0.133542 16.286700 17.176700
157  2 -0.1049  8.125730  7.338170  3.648380
158  2 -0.1221 11.855300  7.992690 17.289600
159  2 -0.0882  7.995460 16.399900  3.760160
160  2 -0.1035 11.630800 16.104900 17.300800
161  2 -0.7836  7.117530  1.150010 10.662600
162  2 -0.8123  6.384130 18.141700 23.843700
163  2 -0.8049  7.118590  9.780400 10.300400
164  2 -0.8439  6.171980  9.687120 23.839200
165  2 -0.8780 19.327100 18.179900 10.333600
166  2 -0.8195 18.644600  1.261230 23.652200
167  2 -0.7506 19.291600  9.628750 10.252000
168  2 -0.8211 18.699700  9.478280 23.547400
169  2 -0.7655  0.973822 18.079400 10.137700
170  2 -0.7901  0.112631  1.083000 24.049300
171  2 -0.7766  1.088890  9.944070 10.037800
172  2 -0.7998  0.206482  9.772060 23.817400
173  2 -0.8130 13.077400 18.300700  9.958060
174  2 -0.7834 12.561700 18.346600 23.961100
175  2 -0.8558 13.423500  9.676750  9.990730
176  2 -0.7795 12.442900  9.629040 24.227200
177  2 -0.0989  5.880440  3.808140  3.197840
178  2 -0.0983  1.642350  3.010780 16.971600
179  2 -0.0837  5.805200 12.126400  3.197400
180  2 -0.0838  1.542680 11.905200 16.778600
181  2 -0.1292 17.963300  3.568430  3.225330
182  2 -0.1016 13.900100  3.153310 16.770800
183  2 -0.0659 17.926600 11.800500  2.949230
184  2 -0.0961 13.934800 12.041600 16.645800
185  2 -0.0912  6.003970  7.574360  3.035470
186  2 -0.1216  1.828040  7.457600 16.992700
187  2 -0.1089  5.762510 16.310900  3.235840
188  2 -0.0771  1.945640 16.202300 16.645700
189  2 -0.0780 17.978900  7.588090  2.913370
190  2 -0.0817 14.027400  7.816910 16.711800
191  2 -0.0967 18.012800 16.350200  3.094560
192  2 -0.1043 13.855600 16.280100 16.752400
193  2 -0.4543  1.566520  5.692820  6.035160
194  2 -0.4268  0.241831  5.476220 19.992400
195  2 -0.4092  1.494010 14.230500  5.811220
196  2 -0.4497  0.266977 14.046200 20.087600
197  2 -0.4204 13.826700  5.516840  5.891970
198  2 -0.4593 12.555200  5.460800 19.896100
199  2 -0.4275 13.950700 14.345900  5.786090
200  2 -0.3862 12.278600 14.033500 20.086100
201  2 -0.4268  7.189570  5.389310  6.675360
202  2 -0.4285  5.836740  5.225600 19.692100
203  2 -0.4179  7.281430 14.329600  6.549810
204  2 -0.3818  5.893640 14.092600 19.465300
205  2 -0.3961 19.607100  5.363950  6.442420
206  2 -0.3594 18.106600  5.386510 19.234600
207  2 -0.4405 19.514400 14.283400  6.112190
208  2 -0.4276 17.858200 14.276300 19.335500
209  2 -0.8910 -1.788470  7.632190 12.436900
210  2 -0.8696 21.761400  7.622160 25.736900
211  2 -0.9100 -1.952620 16.028300 11.904000
212  2 -0.8875 21.841500 16.135200 25.630300
213  2 -0.9155 10.327800  7.668000 12.170000
214  2 -0.9088  9.419120  7.792850 26.107600
215  2 -0.8840 10.352900 16.029300 12.379300
216  2 -0.9116  9.440480 16.283200 26.027100
217  2 -0.9193 -1.849470  2.969500 12.189200
218  2 -0.9023 21.581000  3.380000 25.637700
219  2 -0.9167 -2.115260 11.765400 12.117300
220  2 -0.9486 21.622900 11.655900 25.778100
221  2 -0.9514 10.261600  3.480040 12.333400
222  2 -0.8429  9.510200  3.374040 25.978300
223  2 -0.9445 10.494900 12.037500 12.199000
224  2 -0.9182  9.496090 12.081100 25.957900
225  2 -0.4648 -0.486765 18.432000  0.813493
226  2 -0.4006  1.067160 18.167800 13.959700
227  2 -0.4070 -0.303117  9.602490  0.588807
228  2 -0.4316  0.984864  9.768930 14.130600
229  2 -0.4568 12.211200  1.255220  0.931773
230  2 -0.3918 13.303700  1.240170 13.933300
231  2 -0.4154 12.347200 10.073300  0.683620
232  2 -0.3998 13.582500  9.754650 14.135600
233  2 -0.4383  6.639730 18.607000  0.515400
234  2 -0.4158  7.627820  1.246800 14.763000
235  2 -0.4436  6.460410  9.909960  0.346356
236  2 -0.3731  7.727810  9.793420 14.820000
237  2 -0.4623 18.624100  1.304480  0.193494
238  2 -0.4141 19.877500 18.125500 14.250100
239  2 -0.4511 18.759800  9.664220  0.233077
240  2 -0.4167 20.039900  9.727320 14.595200
241  2 -0.8961  4.110690  7.720480  8.331220
242  2 -0.9101  3.157550  7.585560 21.943000
243  2 -0.8774  4.117340 16.196900  8.420310
244  2 -0.9069  3.214170 16.120800 21.962900
245  2 -0.9395 16.472300  7.563070  8.192660
246  2 -0.9465 15.320200  7.719500 21.966300
247  2 -0.9427 16.683900 16.091600  8.275460
248  2 -0.8820 15.502600 16.205000 21.855300
249  2 -0.8945  4.194210  3.497300  8.326010
250  2 -0.9193  3.164810  3.399080 22.148600
251  2 -0.8483  4.177960 12.063300  8.179070
252  2 -0.9248  3.316480 12.074700 22.018300
253  2 -0.8438 16.435600  3.458460  8.336630
254  2 -0.9279 15.430900  3.423710 21.884400
255  2 -0.8834 16.362700 11.842700  8.229840
256  2 -0.9410 15.528400 12.088400 21.707000
257  2 -0.4522  6.579710  5.547260  0.512769
258  2 -0.4157  7.601020  5.799940 14.749700
259  2 -0.4285  6.467780 14.173000  0.650356
260  2 -0.4238  7.905990 13.897900 14.871200
261  2 -0.4581 18.653200  5.584200  0.160496
262  2 -0.4354 20.062200  5.350360 14.337900
263  2 -0.4132 18.808900 13.902600  0.426720
264  2 -0.4671 20.090000 14.199400 14.566000
265  2 -0.3905 -0.180769  5.322620  0.734157
266  2 -0.4374  1.082440  5.359730 14.235200
267  2 -0.4174 -0.014361 13.799100  0.699617
268  2 -0.4807  1.012860 13.817800 13.965300
269  2 -0.4528 12.169800  5.744050  0.928060
270  2 -0.4357 13.376400  5.530960 14.004300
271  2 -0.4444 12.230200 14.298600  0.731071
272  2 -0.4630 13.239900 14.210600 13.885400
273  2 -0.4681 -2.047170  3.542280  8.318130
274  2 -0.4474 21.753600  3.303490 21.509600
275  2 -0.4871 -2.217930 11.877800  7.984600
276  2 -0.4364 21.954000 12.013500 21.843100
277  2 -0.4916  9.938370  3.339360  8.301470
278  2 -0.4306  9.180630  3.303700 22.162900
279  2 -0.4457 10.458300 11.748700  8.052570
280  2 -0.4262  9.334650 12.178000 22.047800
281  2 -0.5156 -1.959950  7.544860  8.463760
282  2 -0.4176 21.694300  7.581220 21.804100
283  2 -0.4311 -1.949930 16.305100  7.885910
284  2 -0.4341 21.954700 15.873400 21.751500
285  2 -0.3907 10.294400  7.436470  8.122760
286  2 -0.4620  9.569410  7.829890 21.982100
287  2 -0.4768 10.471500 16.316400  8.518160
288  2 -0.4150  9.509540 16.034300 21.916000
289  2 -0.3945  7.449010  1.496850  6.455250
290  2 -0.4420  5.892290 18.265900 19.702300
291  2 -0.4456  7.444410  9.782680  6.432280
292  2 -0.4262  5.753440  9.783070 19.577000
293  2 -0.4101 19.760400  1.348870  6.479940
294  2 -0.4364 18.073900 18.494700 19.328700
295  2 -0.4669 19.432700  9.715510  6.254900
296  2 -0.4662 18.087100  9.682380 19.571400
297  2 -0.4151  1.544940 18.498400  5.872080
298  2 -0.4418  0.315098  1.338370 20.031400
299  2 -0.4072  1.695360  9.792690  5.795710
300  2 -0.3921  0.099201  9.810530 19.924200
301  2 -0.4791 14.040600  1.343500  5.958770
302  2 -0.4032 12.272000  1.228410 20.164000
303  2 -0.4723 13.748200  9.784620  6.030800
304  2 -0.4629 12.758100 10.135400 20.049500
305  2 -0.4640  3.905580  3.474840 12.248700
306  2 -0.4769  3.359240  3.238890 25.908500
307  2 -0.4430  3.988370 11.860700 12.171600
308  2 -0.4437  3.341600 11.709200 25.984000
309  2 -0.4215 16.293400  3.158790 12.116700
310  2 -0.4856 15.587400  3.596570 25.831100
311  2 -0.4725 16.263000 11.890000 11.938100
312  2 -0.4558 15.656200 11.713900 25.823700
313  2 -0.4744  4.258220  7.875610 12.244500
314  2 -0.4518  3.065220  7.694800 26.008500
315  2 -0.4606  4.216020 16.030600 12.322400
316  2 -0.4311  3.355770 16.073700 25.998700
317  2 -0.4023 16.167300  7.652470 12.492700
318  2 -0.4365 15.589600  7.649220 25.826200
319  2 -0.4066 16.303900 16.043800 12.282600
320  2 -0.4762 15.628300 16.229100 25.798100

