Generated by pymatgen.io.lammps.data.LammpsData

216  atoms

  2  atom types

0.000000 18.096178  xlo xhi
0.000000 18.140645  ylo yhi
0.000000 18.233787  zlo zhi

Masses

1  208.9804
2   78.9600

Atoms

1    1  0.8038  0.119402 17.829000 17.557600
2    1  0.8090 18.034700 18.164700  6.148670
3    1  0.8595 18.079500 17.709400 12.062000
4    1  0.7746 18.079500  5.937380 17.395400
5    1  0.8012 17.619000  5.739070  6.339060
6    1  0.8411 17.760100  5.900060 12.112300
7    1  0.7175 17.919100 11.904700 17.720400
8    1  0.7199 18.097800 11.559700  5.506610
9    1  0.7276 18.081900 12.112300 11.352800
10   1  0.7625  5.950040  0.226039 17.847200
11   1  0.7063  5.343910 17.838000  5.696750
12   1  0.7304  6.009760 17.885900 12.436300
13   1  0.7500  5.478690  5.820970  0.130761
14   1  0.8604  5.890050  5.914550  5.773220
15   1  0.6833  5.877610  5.946280 11.796500
16   1  0.8211  6.157770 12.317100 17.971900
17   1  0.8705  5.835640 11.362100  5.670430
18   1  0.7458  5.641980 11.924700 11.814100
19   1  0.7968 12.322100 17.096700 17.467500
20   1  0.7726 11.962300 17.752000  6.045980
21   1  0.7516 12.166100 18.198100 11.639500
22   1  0.7031 11.201300  5.263910 17.563500
23   1  0.7679 12.098800  5.861590  5.446330
24   1  0.8413 11.951800  5.506820 11.613700
25   1  0.8371 12.083700 11.995500 17.715300
26   1  0.7510 11.646400 12.075100  5.689080
27   1  0.7896 11.891200 11.662200 12.119200
28   1  0.7324 17.972400  2.932210  2.066670
29   1  0.7191 17.727000  2.962710  8.634310
30   1  0.8183 18.097800  3.128820 14.413900
31   1  0.6729 17.672300  8.764890  2.392690
32   1  0.8370 17.801400  8.610220  8.699730
33   1  0.8358 17.899700  9.034610 14.531600
34   1  0.7181  0.208217 15.005300  2.497440
35   1  0.8347 18.149600 15.021900  8.856740
36   1  0.6917 17.805500 14.398400 14.688400
37   1  0.7552  5.756820  3.075940  2.576680
38   1  0.8550  5.626910  2.971560  8.745820
39   1  0.7364  5.643450  2.715860 14.159600
40   1  0.6985  6.211510  8.954410  2.894070
41   1  0.7872  5.707420  9.369160  9.345450
42   1  0.7765  5.699840  8.320880 14.800200
43   1  0.6996  6.207970 15.409500  3.501900
44   1  0.7555  5.850090 15.069900  8.746160
45   1  0.8229  6.492990 14.945900 15.347100
46   1  0.6844 11.726200  2.538700  2.751260
47   1  0.7789 11.906900  2.445530  9.080110
48   1  0.7834 11.844000  2.975020 15.003700
49   1  0.8632 11.611400  8.836260  2.194020
50   1  0.7029 11.370600  8.924020  8.532100
51   1  0.7540 11.849200  8.919140 14.497900
52   1  0.7657 11.842900 14.977100  2.966610
53   1  0.8184 12.055600 14.814700  9.383360
54   1  0.8222 12.617500 14.483300 15.090500
55   1  0.6954  2.872350 17.701900  2.275820
56   1  0.8470  3.354830 18.030900  9.400370
57   1  0.8658  2.716380 17.902000 14.873400
58   1  0.7459  2.737910  6.054640  2.294480
59   1  0.8035  2.363530  5.773820  9.127530
60   1  0.7925  2.926370  5.747100 14.622600
61   1  0.7937  2.962190 12.137600  2.396600
62   1  0.7658  2.821270 11.513000  8.916420
63   1  0.8666  2.740850 11.843100 14.664200
64   1  0.6486  9.322880  0.272337  2.764750
65   1  0.7737  8.707350 17.991200  9.415180
66   1  0.8017  8.654990 17.927500 15.212400
67   1  0.6336  7.978660  5.940730  2.626900
68   1  0.7137  8.554540  6.198280  9.378080
69   1  0.7679  8.588550  5.889060 14.721600
70   1  0.8019  8.840770 12.041100  2.963280
71   1  0.7022  9.353750 11.412600  9.191650
72   1  0.7915  9.252670 11.683800 14.547000
73   1  0.8455 15.244900 17.802000  2.082900
74   1  0.6990 14.991200 17.958400  8.878460
75   1  0.8469 15.467200  0.410768 14.705600
76   1  0.7564 14.810400  5.395690  2.108630
77   1  0.7459 14.600800  5.891270  8.874100
78   1  0.8241 14.610000  6.419440 14.493800
79   1  0.7452 15.230900 11.788600  2.928400
80   1  0.8515 15.551700 11.852800  8.844930
81   1  0.6751 15.165300 12.155400 15.130600
82   1  0.7874  2.497470  2.054900 18.011700
83   1  0.9448  2.637120  2.844970  5.517750
84   1  0.7150  2.832190  2.830670 12.355300
85   1  0.7574  2.925940  8.532280 17.829300
86   1  0.8119  3.116090  8.363600  5.721620
87   1  0.7478  2.783050  8.542000 12.209800
88   1  0.7648  3.096620 15.315500 17.810000
89   1  0.7925  2.807500 15.250900  5.872600
90   1  0.8533  3.201370 14.476300 11.708500
91   1  0.7648  8.168290  2.993980 18.215100
92   1  0.6961  9.267970  3.079810  5.251140
93   1  0.8116  8.867060  3.154180 12.161700
94   1  0.8110  8.849970  8.610220 17.517100
95   1  0.7945  8.830370  8.907310  5.498720
96   1  0.6862  8.408170  8.623620 11.593000
97   1  0.7394  9.425590 15.028900 18.099700
98   1  0.7164  8.357100 14.459000  5.895400
99   1  0.7583  8.430460 15.114100 11.874300
100  1  0.8366 15.034100  2.673460 17.844200
101  1  0.8892 14.970000  2.829770  5.563790
102  1  0.7433 14.717300  3.136220 12.114500
103  1  0.6820 14.725900  8.445430 17.717200
104  1  0.7608 14.540300  8.961770  5.970720
105  1  0.8928 15.029500  9.264500 11.018800
106  1  0.8558 15.315400 14.842100 -0.017473
107  1  0.7711 14.970300 15.059400  5.794300
108  1  0.8177 15.207800 14.542400 12.087500
109  2 -1.0029  2.717540 17.869400 17.688700
110  2 -0.7597  2.732920 18.121200  6.243280
111  2 -0.7578  2.691620 17.525000 11.833100
112  2 -0.7377  2.875710  5.138190 17.633900
113  2 -0.6289  3.023880  5.532460  5.658120
114  2 -0.8989  2.991040  5.543450 11.959300
115  2 -0.6390  2.943570 11.666400 17.537100
116  2 -0.6582  3.128390 11.599000  5.451220
117  2 -0.8934  2.644660 11.854300 11.906800
118  2 -0.7540  9.248040  0.045207 17.732900
119  2 -0.6728  8.920140 18.056900  6.375020
120  2 -0.8142  8.785160 17.682600 12.318800
121  2 -0.8256  8.040480  5.989960 17.817000
122  2 -0.7553  8.998640  6.009660  5.726490
123  2 -0.9043  9.091200  5.693420 12.043300
124  2 -0.7154  9.218000 12.212200 17.579100
125  2 -0.8355  8.579220 11.800100  5.758500
126  2 -0.8318  8.696610 11.723900 12.034200
127  2 -0.7777 15.493800 18.035900 17.411500
128  2 -0.6766 14.903900 17.955100  5.409890
129  2 -0.7662 15.183000 17.473500 11.941000
130  2 -0.7525 14.836100  5.307610 17.579000
131  2 -0.7842 14.891900  5.381590  5.759560
132  2 -0.7857 14.769200  5.898170 11.901500
133  2 -0.7906 14.744300 11.482800  0.094231
134  2 -0.7647 14.829100 11.863200  6.004700
135  2 -0.7751 15.217700 11.849300 11.973000
136  2 -0.7466  2.987320  3.049970  2.821420
137  2 -0.6954  2.678210  3.053620  8.571450
138  2 -0.8020  2.836470  2.463770 14.981900
139  2 -0.7488  3.123780  9.024350  2.356160
140  2 -0.7389  3.070730  8.500300  8.435400
141  2 -0.7913  2.594330  8.648320 14.817900
142  2 -0.8400  3.373980 15.138700  2.811030
143  2 -0.7416  2.787000 14.624500  8.862520
144  2 -0.6462  3.351680 14.875000 14.970300
145  2 -0.9564  8.779310  2.853540  2.458940
146  2 -0.6758  8.502530  2.678790  9.433530
147  2 -0.7559  8.559510  2.810680 14.862300
148  2 -0.8042  8.985470  9.218340  2.280820
149  2 -0.8279  8.586550  9.063210  8.275190
150  2 -0.8134  8.915280  8.857910 14.150700
151  2 -0.8601  8.876400 14.757400  3.122100
152  2 -0.7411  9.102690 14.822900  8.959050
153  2 -0.7148  9.288020 15.060300 14.879600
154  2 -0.7352 14.942100  2.296100  3.078900
155  2 -0.8180 14.716400  2.506940  8.599400
156  2 -0.7427 14.954400  3.070590 14.831900
157  2 -0.7054 14.582700  8.210770  2.427110
158  2 -0.8836 15.140400  9.191960  8.655270
159  2 -0.7289 14.635100  9.068710 14.226800
160  2 -0.7791 15.265700 15.025300  2.349860
161  2 -0.7630 15.413900 14.460100  9.524880
162  2 -0.8026 15.145700 15.152300 15.491200
163  2 -0.7627 17.976100  0.106162  2.686650
164  2 -0.7103  0.567793 17.753200  8.937940
165  2 -0.8426 18.055700 18.146000 14.612700
166  2 -0.7390 17.932500  5.729760  2.570470
167  2 -0.9027 17.669800  5.989320  8.961520
168  2 -0.8116 17.725100  5.799190 14.753500
169  2 -0.8297 17.907500 12.100000  2.737390
170  2 -0.8728  0.175774 11.196900  8.614650
171  2 -0.8882 18.056900 11.742800 14.978100
172  2 -0.8073  5.873150  0.289270  2.714550
173  2 -0.8133  5.852370 17.845800  8.856720
174  2 -0.7903  5.622890 17.559900 15.177000
175  2 -0.9113  5.424920  5.916010  3.278600
176  2 -0.7015  5.623200  5.876880  8.872330
177  2 -0.7406  5.528210  5.745750 15.326100
178  2 -0.7386  5.720730 11.830600  2.321570
179  2 -0.7466  6.005940 11.779900  8.695430
180  2 -0.6452  5.516720 12.047500 14.659400
181  2 -0.7506 12.298600 17.672200  2.275810
182  2 -0.8150 12.149200 17.670000  8.726810
183  2 -0.6188 12.269200 17.530600 14.688400
184  2 -0.7075 11.793500  5.820470  2.436690
185  2 -0.7518 11.790800  5.624780  9.008030
186  2 -0.7849 11.669000  5.673070 14.570600
187  2 -0.7174 11.640000 11.825600  2.802620
188  2 -0.6955 12.552900 12.072600  9.485650
189  2 -0.8961 12.058100 11.919500 14.995700
190  2 -0.7680 17.755800  3.086320 17.215600
191  2 -0.7441 18.090700  2.854900  5.519710
192  2 -0.8351 17.398500  3.272480 11.635500
193  2 -0.7813  0.070022  8.792230 17.347200
194  2 -0.7444 17.752000  8.429310  5.502180
195  2 -0.7964 17.815300  8.656020 11.729600
196  2 -0.8546 17.947300 15.129600 17.919300
197  2 -0.7693 17.769300 15.332800  5.997900
198  2 -0.7827  0.237426 15.179800 11.516300
199  2 -0.6681  5.785950  2.970740 17.137800
200  2 -0.6526  5.327020  3.006890  5.592260
201  2 -0.8451  5.482500  2.902920 11.450600
202  2 -0.6923  6.051930  9.030380 17.832300
203  2 -0.7625  5.832950  8.865150  6.124350
204  2 -0.9228  5.551180  8.903930 12.139100
205  2 -0.7673  6.310620 15.161300 17.856800
206  2 -0.7920  5.207160 14.513200  6.051220
207  2 -0.8156  5.629470 15.216000 12.050400
208  2 -0.7214 12.251200  2.562190 17.692900
209  2 -0.7333 12.060600  2.665000  5.962360
210  2 -0.8727 11.594300  2.752870 11.874000
211  2 -0.7638 11.468200  8.499030 17.813500
212  2 -0.7994 11.718300  8.878330  5.758880
213  2 -0.7337 12.159300  8.924070 11.420900
214  2 -0.8507 12.317800 14.580200 18.147900
215  2 -0.7712 12.161300 14.734300  5.970600
216  2 -0.6687 12.363400 14.830800 12.182200

