Generated by pymatgen.io.lammps.data.LammpsData

320  atoms

  2  atom types

0.000000 24.238174  xlo xhi
0.000000 16.867156  ylo yhi
0.000000 27.370788  zlo zhi

Masses

1  208.9804
2   78.9600

Atoms

1    1  0.7464 21.812500  1.460760  0.917804
2    1  0.7276 -2.001210 18.220400 14.416500
3    1  0.7438 21.919400  9.795030  0.937616
4    1  0.7158 -1.941830  9.733750 14.438500
5    1  0.7213  9.451000  1.481300  0.943562
6    1  0.7055 10.304800  1.569450 14.339900
7    1  0.7588  9.423630  9.929100  0.904170
8    1  0.7430 10.178400  9.939810 14.445900
9    1  0.7636  4.011770  5.636580 10.278400
10   1  0.7612  3.512380  5.601040 23.957500
11   1  0.7681  4.049580 14.002400 10.161800
12   1  0.7589  3.554970 14.081000 23.851300
13   1  0.7370 16.113900  5.764010 10.184000
14   1  0.7607 15.856000  5.739180 24.161000
15   1  0.7664 16.200100 14.058600 10.154100
16   1  0.7480 15.676100 14.076900 24.202100
17   1  0.7463  3.955460  5.671440  6.009690
18   1  0.7327  3.438250  5.630690 19.617700
19   1  0.7373  4.211800 14.054100  6.093210
20   1  0.7372  3.707240 13.903300 19.569200
21   1  0.7466 16.238400  5.601390  5.979760
22   1  0.7498 15.514000  5.615460 19.958900
23   1  0.7496 16.320700 14.016400  6.011380
24   1  0.7162 15.666100 14.205600 19.844400
25   1  0.7823 -2.025740 18.220900 10.146900
26   1  0.7828 21.775500  1.499040 23.956500
27   1  0.7716 -2.005840  9.844070 10.206000
28   1  0.7660 21.704000  9.861310 23.925000
29   1  0.7825 10.165700 18.359700 10.180000
30   1  0.7867  9.615180 18.352600 23.989100
31   1  0.7782 10.165500  9.962000 10.151200
32   1  0.7649  9.565760  9.865070 24.154700
33   1  0.7577 -2.297780  5.682550  0.952704
34   1  0.7617 -2.006320  5.603450 14.568800
35   1  0.7717 21.826000 14.046600  0.701773
36   1  0.7544 -1.922500 14.013200 14.417500
37   1  0.7925  9.583600  5.608650  0.939184
38   1  0.7514 10.065900  5.679730 14.170400
39   1  0.7753  9.443390 14.137700  0.918468
40   1  0.7509 10.071300 14.130000 14.690800
41   1  0.8297 -2.045650  5.649940 10.308600
42   1  0.8203 21.808000  5.678600 24.025200
43   1  0.8105 -2.016760 14.113100 10.083900
44   1  0.8005 21.846800 14.170000 23.894600
45   1  0.7934 10.061200  5.725400 10.055400
46   1  0.8069  9.559290  5.725670 24.032700
47   1  0.7969 10.205900 14.087800 10.079200
48   1  0.8132  9.640610 14.068000 24.084700
49   1  0.7694  4.088440  1.428500  6.036030
50   1  0.7628  3.685440  1.368750 19.685200
51   1  0.7665  4.132370  9.943000  5.935750
52   1  0.7606  3.486190  9.823950 19.548400
53   1  0.7569 16.157500 18.250800  5.974510
54   1  0.7288 15.676500  1.511210 20.089600
55   1  0.7514 16.168500  9.918010  5.986990
56   1  0.7498 15.408800  9.850830 19.909200
57   1  0.7930  4.049470 18.315900 10.261400
58   1  0.7991  3.497040  1.395280 23.737300
59   1  0.8059  4.000000  9.872370 10.072600
60   1  0.7906  3.442470  9.937870 23.867600
61   1  0.8005 16.200300 18.275200 10.159700
62   1  0.7602 15.704200 18.316400 24.231200
63   1  0.7962 16.241600  9.872630 10.168300
64   1  0.8177 15.726100  9.861590 24.216500
65   1  0.8010  0.421791  7.727650 26.082100
66   1  0.8102  0.890902  7.711290 12.255500
67   1  0.7991  0.358884 16.183600 26.059900
68   1  0.7928  0.939350 16.150200 12.274800
69   1  0.7855 12.562400  7.649550 26.297700
70   1  0.8099 12.894400  7.718090 12.311900
71   1  0.7620 12.384900 16.174100 26.392700
72   1  0.8147 13.091100 15.989500 12.275600
73   1  0.8026  6.713740  7.654910 26.073300
74   1  0.8119  7.269600  7.894040 12.279000
75   1  0.8110  6.632360 16.304400 26.177500
76   1  0.7843  7.301370 16.161700 12.417000
77   1  0.8190 19.026900  7.747080 26.284000
78   1  0.7818 19.415500  7.546250 12.345900
79   1  0.8340 18.991700 16.124700 26.094800
80   1  0.8025 19.447300 16.118100 12.237700
81   1  0.8024  0.345145  3.663740 26.219000
82   1  0.8037  0.885248  3.525840 12.395800
83   1  0.7847  0.393698 12.171900 25.922100
84   1  0.8187  0.933649 11.920900 12.278500
85   1  0.8045 12.480400  3.673400 26.226600
86   1  0.7979 12.961900  3.635720 12.141200
87   1  0.8060 12.391000 12.118800 26.305100
88   1  0.7732 12.985600 12.078400 12.400500
89   1  0.7968  6.658850  3.660470 26.079000
90   1  0.8013  7.285940  3.544670 12.348300
91   1  0.7967  6.672700 11.950200 25.932200
92   1  0.7967  7.309510 11.993100 12.231900
93   1  0.8107 18.902000  3.506420 26.245600
94   1  0.7937 19.380200  3.561730 12.439000
95   1  0.8216 18.894800 12.052300 26.233800
96   1  0.7879 19.470000 12.080100 12.296000
97   1  0.7941  1.174180  7.862020  8.038130
98   1  0.7890  0.675778  7.783280 21.732200
99   1  0.7914  1.194180 16.264900  8.056610
100  1  0.7927  0.664048 16.304600 21.587000
101  1  0.7807 13.273800  7.934540  7.917570
102  1  0.8187 12.765200  7.840890 22.238200
103  1  0.7735 13.343500 16.186300  8.004680
104  1  0.8001 12.918400 16.286300 22.059900
105  1  0.8132  6.886250  7.834420  8.000370
106  1  0.8065  6.328060  7.767090 21.677600
107  1  0.8166  6.950360 16.160100  8.228120
108  1  0.7810  6.437690 16.295400 21.688300
109  1  0.8008 19.131900  7.761800  8.115280
110  1  0.7812 18.505700  7.808920 21.905000
111  1  0.8293 19.105700 16.264600  8.052990
112  1  0.7960 18.588300 16.260300 22.050000
113  1  0.8030  1.168740  3.519390  8.146110
114  1  0.7984  0.738735  3.423680 21.736100
115  1  0.8057  1.195620 11.968700  8.023910
116  1  0.7795  0.720802 11.893500 21.828400
117  1  0.7966 13.329800  3.431910  7.967730
118  1  0.8346 12.745800  3.523410 22.109800
119  1  0.7882 13.425500 11.926200  8.067880
120  1  0.8088 12.792000 11.955900 22.095700
121  1  0.8020  6.965780  3.519330  8.091550
122  1  0.7967  6.361990  3.512440 21.811500
123  1  0.8145  6.923440 11.914300  8.106920
124  1  0.7980  6.502330 11.812200 21.784800
125  1  0.8050 19.128800  3.395100  8.162650
126  1  0.7947 18.496400  3.630600 22.015800
127  1  0.8184 19.196700 11.878900  8.001990
128  1  0.7805 18.546400 11.943900 22.017500
129  2 -0.7757  7.055080  5.722800 10.163700
130  2 -0.7971  6.589460  5.682930 24.002800
131  2 -0.7942  7.025450 14.050800 10.217400
132  2 -0.7604  6.677040 14.127700 23.994200
133  2 -0.8073 19.349300  5.522660 10.293600
134  2 -0.7890 18.803000  5.617480 24.081100
135  2 -0.7887 19.237500 14.096900 10.052300
136  2 -0.7886 18.796700 14.098900 24.061100
137  2 -0.7853  0.946261  5.618880 10.272200
138  2 -0.7830  0.442340  5.626430 24.006400
139  2 -0.7820  0.909864 14.059800 10.210900
140  2 -0.8095  0.516188 14.211000 23.914800
141  2 -0.7826 13.077500  5.696890 10.056100
142  2 -0.8040 12.514600  5.635150 24.160900
143  2 -0.8200 13.153800 14.020700 10.113900
144  2 -0.8012 12.579900 14.002400 24.226600
145  2 -0.1312 -1.973870  3.548670  3.672600
146  2 -0.1058 21.331200  3.313010 17.156900
147  2 -0.1367 21.089500 12.189400  3.410160
148  2 -0.1376 -1.041970 11.899000 16.963800
149  2 -0.1282 10.034600  3.548690  3.521960
150  2 -0.0416 11.977100  3.602840 17.608500
151  2 -0.1264  8.316140 11.987400  3.397710
152  2 -0.1202 10.032900 12.074300 17.382300
153  2 -0.1090 -1.074610  7.867540  3.508180
154  2 -0.1415 -0.861905  7.767450 17.029800
155  2 -0.1198 20.924200 16.004800  3.318380
156  2 -0.1434 -1.859460 16.167600 17.072400
157  2 -0.1195  9.077160  7.483730  3.636600
158  2 -0.1833  9.881870  7.477710 16.589700
159  2 -0.1326  8.465560 16.279500  3.474020
160  2 -0.1417 11.065000 16.467400 17.001900
161  2 -0.7833  7.206970 18.314100 10.232700
162  2 -0.7754  6.503080 18.367200 23.846500
163  2 -0.8009  7.092460  9.873290 10.027100
164  2 -0.7893  6.510390  9.779590 23.820700
165  2 -0.8048 19.292000 18.184900 10.196800
166  2 -0.7997 18.826200  1.447950 24.187200
167  2 -0.7873 19.378100  9.854530 10.175100
168  2 -0.7843 18.663800  9.893770 24.232500
169  2 -0.8066  1.009110  1.416180 10.218900
170  2 -0.7773  0.478415 18.319300 23.859500
171  2 -0.8130  1.034900  9.906980 10.193900
172  2 -0.8026  0.434529  9.868730 23.866600
173  2 -0.7831 13.240600 18.270100 10.117800
174  2 -0.7915 12.607600 18.382500 24.178600
175  2 -0.7831 13.157000  9.926760 10.144000
176  2 -0.7817 12.662300  9.964150 24.280500
177  2 -0.1205  3.364010  3.499850  3.393920
178  2 -0.1351  2.704210  3.541560 17.109000
179  2 -0.1225  4.869650 12.086400  3.362000
180  2 -0.1107  3.135660 11.944100 16.801600
181  2 -0.1173 15.410600  3.533610  3.321660
182  2 -0.0595 13.928600  3.608060 16.782700
183  2 -0.1275 16.701400 11.858900  3.234380
184  2 -0.1529 15.206200 11.911000 17.232500
185  2 -0.1127  3.249370  7.777890  3.395780
186  2 -0.1240  2.632950  7.657460 16.929000
187  2 -0.1192  5.028960 16.152200  3.434660
188  2 -0.1266  3.766820 16.134500 16.883700
189  2 -0.1404 16.859700  7.763730  3.419850
190  2 -0.1351 15.610300  7.614910 17.361400
191  2 -0.1167 17.101100 16.164600  3.398090
192  2 -0.0992 14.739000 16.526500 17.165500
193  2 -0.3940  1.071270  5.830920  6.023750
194  2 -0.4060  0.576369  5.608020 19.606200
195  2 -0.4394  1.321400 14.081200  6.034280
196  2 -0.3945  0.838282 14.064100 19.517100
197  2 -0.4036 13.333700  5.489800  5.916640
198  2 -0.4402 12.839100  5.682430 20.122000
199  2 -0.4283 13.572300 13.951500  5.803110
200  2 -0.4028 12.870900 14.269600 19.830700
201  2 -0.4382  6.749160  5.577350  5.914460
202  2 -0.4278  6.351840  5.612280 19.679200
203  2 -0.4207  7.006970 14.072700  6.100030
204  2 -0.4267  6.550860 13.812900 19.644700
205  2 -0.4081 19.001100  5.640400  5.911350
206  2 -0.4162 18.269600  5.712480 19.756900
207  2 -0.4002 19.138500 14.174700  5.986010
208  2 -0.4083 18.604200 14.117100 19.916000
209  2 -0.9216 -1.971010  7.586060 12.308500
210  2 -0.9186 21.821100  7.735410 26.082000
211  2 -0.9180 -2.007940 16.133600 12.201000
212  2 -0.9186 21.735300 16.114300 26.010200
213  2 -0.9216 10.141100  7.798260 12.114100
214  2 -0.9075  9.644720  7.697730 26.264900
215  2 -0.8762 10.241200 16.097900 12.151900
216  2 -0.9063  9.516290 16.141100 26.109500
217  2 -0.8960 -2.011260  3.597350 12.302500
218  2 -0.9087 21.757300  3.649110 26.107400
219  2 -0.9064 -1.938460 12.062200 12.281300
220  2 -0.9043 21.745000 12.092900 25.954300
221  2 -0.9424 10.133400  3.561360 12.120200
222  2 -0.9027  9.598770  3.640900 26.066800
223  2 -0.9131 10.128900 12.084200 12.321600
224  2 -0.9217  9.591790 12.078500 26.077600
225  2 -0.4320  0.398386 18.373300  0.782245
226  2 -0.3980  0.869115  1.385550 14.593300
227  2 -0.3890  0.526815  9.914970  0.789840
228  2 -0.3864  1.024980  9.839500 14.403900
229  2 -0.3893 12.340600 18.267800  1.144320
230  2 -0.3968 13.149800  1.224880 14.178100
231  2 -0.4122 12.155000  9.953060  1.142900
232  2 -0.3989 13.016100  9.905580 14.524100
233  2 -0.4119  6.471520  1.584500  0.827326
234  2 -0.4460  7.336830  1.554460 14.435500
235  2 -0.4163  6.549830  9.893290  0.673287
236  2 -0.4173  7.372200  9.921860 14.451400
237  2 -0.4167 19.030400  1.469890  0.957374
238  2 -0.4108 19.362300 18.420100 14.434900
239  2 -0.4233 19.168800  9.740870  1.014050
240  2 -0.3785 19.338300  9.637800 14.434700
241  2 -0.9253  3.978610  7.870490  8.079630
242  2 -0.9099  3.514350  7.839550 21.806000
243  2 -0.9183  4.078260 16.296300  8.195910
244  2 -0.9258  3.561820 16.271500 21.737200
245  2 -0.9214 16.213100  7.842760  8.142450
246  2 -0.9129 15.670600  7.902610 22.182100
247  2 -0.9268 16.216900 16.220700  8.135720
248  2 -0.9382 15.718500 16.249500 22.138600
249  2 -0.9183  3.974280  3.466270  8.218790
250  2 -0.9371  3.461790  3.475510 21.776900
251  2 -0.9526  4.084750 11.890300  8.193880
252  2 -0.9213  3.612720 11.837000 21.752100
253  2 -0.9116 16.198000  3.422000  8.110070
254  2 -0.9287 15.652000  3.652440 22.154000
255  2 -0.9307 16.332300 11.906400  8.196210
256  2 -0.8965 15.671500 11.874900 22.189300
257  2 -0.4572  6.846040  5.692390  0.891153
258  2 -0.4375  7.220060  5.830790 14.218000
259  2 -0.4163  6.718830 14.167900  0.787546
260  2 -0.4167  7.271070 14.045000 14.572900
261  2 -0.4178 19.114900  5.705140  1.119350
262  2 -0.4360 19.508400  5.700940 14.607800
263  2 -0.4277 18.974200 14.230400  0.804096
264  2 -0.4625 19.517900 14.083800 14.361900
265  2 -0.4448  0.402420  5.688040  0.884426
266  2 -0.4154  0.887115  5.589800 14.406300
267  2 -0.4408  0.327272 13.997200  0.820823
268  2 -0.3870  1.041920 13.952500 14.410000
269  2 -0.4349 12.344800  5.570110  1.030880
270  2 -0.4820 12.736800  5.753810 14.304200
271  2 -0.4327 12.191900 14.141200  1.201970
272  2 -0.4177 12.853900 14.194900 14.675900
273  2 -0.4599 -1.946560  3.558330  8.257010
274  2 -0.4610 21.723000  3.621200 22.053500
275  2 -0.4790 -1.863010 11.982000  8.204770
276  2 -0.4485 21.661600 11.990400 21.873100
277  2 -0.4534 10.063000  3.589200  8.123140
278  2 -0.4643  9.667570  3.663320 22.141900
279  2 -0.4660 10.035400 11.944200  8.190000
280  2 -0.4523  9.721670 11.786300 22.092100
281  2 -0.4792 -2.041810  7.690120  8.284440
282  2 -0.4680 21.648000  7.648900 21.990600
283  2 -0.4710 -1.985620 16.161900  8.137280
284  2 -0.4685 21.590400 16.219000 21.941500
285  2 -0.4410 10.036200  7.843930  8.073360
286  2 -0.4508  9.695850  7.890260 22.128700
287  2 -0.4519 10.034400 16.148600  8.143050
288  2 -0.4595  9.759640 16.205400 22.135600
289  2 -0.4147  6.936960  1.391030  6.035500
290  2 -0.4703  6.535160 18.415100 19.785600
291  2 -0.4247  6.893090  9.739670  5.838390
292  2 -0.4249  6.285620  9.784480 19.580100
293  2 -0.4458 19.036600  1.415420  6.045660
294  2 -0.4330 18.393700  1.651700 19.826700
295  2 -0.4346 18.998600  9.798140  5.935680
296  2 -0.3938 18.285100  9.763830 19.620900
297  2 -0.4224  1.343050  1.473980  5.863520
298  2 -0.4185  0.826837  1.377370 19.419300
299  2 -0.4064  1.323520 10.039400  5.772980
300  2 -0.4124  0.632304  9.966320 19.613000
301  2 -0.4025 13.249200 18.299400  5.840650
302  2 -0.4487 12.880900 18.351400 20.064900
303  2 -0.4330 13.225100 10.036000  5.924820
304  2 -0.4388 12.619100  9.793810 20.192300
305  2 -0.4560  4.120110  3.475050 12.259400
306  2 -0.4612  3.604920  3.427600 25.875000
307  2 -0.4667  4.159250 11.923800 12.096200
308  2 -0.4860  3.528010 12.052600 25.802000
309  2 -0.4538 16.078400  3.446200 12.178400
310  2 -0.4549 15.686300  3.601430 26.237300
311  2 -0.4488 16.335200 11.885300 12.188600
312  2 -0.4435 15.747900 11.901300 26.248500
313  2 -0.4638  4.054420  7.810710 12.132700
314  2 -0.4663  3.541560  7.738570 25.862200
315  2 -0.4575  4.073940 16.263200 12.212300
316  2 -0.4602  3.420630 16.244700 25.793300
317  2 -0.4438 16.081400  7.882620 12.225400
318  2 -0.4731 15.911500  7.801840 26.173000
319  2 -0.4456 16.270100 16.207400 12.228800
320  2 -0.4464 15.843200 16.268400 26.266100

